s 0.029290548 _1_ RTR  --- 0 message 32 [0 0 0 0] ------- [1:255 -1:255 32 0] 
r 0.030110698 _0_ RTR  --- 0 message 32 [0 ffffffff 1 800] ------- [1:255 -1:255 32 0] 
s 1.119926192 _0_ RTR  --- 1 message 32 [0 0 0 0] ------- [0:255 -1:255 32 0] 
r 1.121106342 _1_ RTR  --- 1 message 32 [0 ffffffff 0 800] ------- [0:255 -1:255 32 0] 
M 10.00000 0 (5.00, 0.00, 0.00), (250.00, 250.00), 3.00
s 10.000000000 _0_ AGT  --- 2 tcp 40 [0 0 0 0] ------- [0:0 1:0 32 0] [0 0] 0 0
r 10.000000000 _0_ RTR  --- 2 tcp 40 [0 0 0 0] ------- [0:0 1:0 32 0] [0 0] 0 0
s 10.000000000 _0_ RTR  --- 2 tcp 60 [0 0 0 0] ------- [0:0 1:0 32 1] [0 0] 0 0
r 10.005112050 _1_ AGT  --- 2 tcp 60 [13a 1 0 800] ------- [0:0 1:0 32 1] [0 0] 1 0
s 10.005112050 _1_ AGT  --- 3 ack 40 [0 0 0 0] ------- [1:0 0:0 32 0] [0 0] 0 0
r 10.005112050 _1_ RTR  --- 3 ack 40 [0 0 0 0] ------- [1:0 0:0 32 0] [0 0] 0 0
s 10.005112050 _1_ RTR  --- 3 ack 60 [0 0 0 0] ------- [1:0 0:0 32 0] [0 0] 0 0
r 10.009665100 _0_ AGT  --- 3 ack 60 [13a 0 1 800] ------- [1:0 0:0 32 0] [0 0] 1 0
s 10.009665100 _0_ AGT  --- 4 tcp 1040 [0 0 0 0] ------- [0:0 1:0 32 0] [1 0] 0 0
r 10.009665100 _0_ RTR  --- 4 tcp 1040 [0 0 0 0] ------- [0:0 1:0 32 0] [1 0] 0 0
s 10.009665100 _0_ RTR  --- 4 tcp 1060 [0 0 0 0] ------- [0:0 1:0 32 1] [1 0] 0 0
s 10.009665100 _0_ AGT  --- 5 tcp 1040 [0 0 0 0] ------- [0:0 1:0 32 0] [2 0] 0 0
r 10.009665100 _0_ RTR  --- 5 tcp 1040 [0 0 0 0] ------- [0:0 1:0 32 0] [2 0] 0 0
s 10.009665100 _0_ RTR  --- 5 tcp 1060 [0 0 0 0] ------- [0:0 1:0 32 1] [2 0] 0 0
r 10.020129549 _1_ AGT  --- 4 tcp 1060 [13a 1 0 800] ------- [0:0 1:0 32 1] [1 0] 1 0
s 10.020129549 _1_ AGT  --- 6 ack 40 [0 0 0 0] ------- [1:0 0:0 32 0] [1 0] 0 0
r 10.020129549 _1_ RTR  --- 6 ack 40 [0 0 0 0] ------- [1:0 0:0 32 0] [1 0] 0 0
s 10.020129549 _1_ RTR  --- 6 ack 60 [0 0 0 0] ------- [1:0 0:0 32 0] [1 0] 0 0
r 10.032468598 _0_ AGT  --- 6 ack 60 [13a 0 1 800] ------- [1:0 0:0 32 0] [1 0] 1 0
s 10.032468598 _0_ AGT  --- 7 tcp 1040 [0 0 0 0] ------- [0:0 1:0 32 0] [3 0] 0 0
r 10.032468598 _0_ RTR  --- 7 tcp 1040 [0 0 0 0] ------- [0:0 1:0 32 0] [3 0] 0 0
s 10.032468598 _0_ RTR  --- 7 tcp 1060 [0 0 0 0] ------- [0:0 1:0 32 1] [3 0] 0 0
s 10.032468598 _0_ AGT  --- 8 tcp 1040 [0 0 0 0] ------- [0:0 1:0 32 0] [4 0] 0 0
r 10.032468598 _0_ RTR  --- 8 tcp 1040 [0 0 0 0] ------- [0:0 1:0 32 0] [4 0] 0 0
s 10.032468598 _0_ RTR  --- 8 tcp 1060 [0 0 0 0] ------- [0:0 1:0 32 1] [4 0] 0 0
r 10.043233047 _1_ AGT  --- 5 tcp 1060 [13a 1 0 800] ------- [0:0 1:0 32 1] [2 0] 1 0
s 10.043233047 _1_ AGT  --- 9 ack 40 [0 0 0 0] ------- [1:0 0:0 32 0] [2 0] 0 0
r 10.043233047 _1_ RTR  --- 9 ack 40 [0 0 0 0] ------- [1:0 0:0 32 0] [2 0] 0 0
s 10.043233047 _1_ RTR  --- 9 ack 60 [0 0 0 0] ------- [1:0 0:0 32 0] [2 0] 0 0
r 10.045457496 _0_ AGT  --- 9 ack 60 [13a 0 1 800] ------- [1:0 0:0 32 0] [2 0] 1 0
s 10.045457496 _0_ AGT  --- 10 tcp 1040 [0 0 0 0] ------- [0:0 1:0 32 0] [5 0] 0 0
r 10.045457496 _0_ RTR  --- 10 tcp 1040 [0 0 0 0] ------- [0:0 1:0 32 0] [5 0] 0 0
s 10.045457496 _0_ RTR  --- 10 tcp 1060 [0 0 0 0] ------- [0:0 1:0 32 1] [5 0] 0 0
s 10.045457496 _0_ AGT  --- 11 tcp 1040 [0 0 0 0] ------- [0:0 1:0 32 0] [6 0] 0 0
r 10.045457496 _0_ RTR  --- 11 tcp 1040 [0 0 0 0] ------- [0:0 1:0 32 0] [6 0] 0 0
s 10.045457496 _0_ RTR  --- 11 tcp 1060 [0 0 0 0] ------- [0:0 1:0 32 1] [6 0] 0 0
r 10.057181945 _1_ AGT  --- 7 tcp 1060 [13a 1 0 800] ------- [0:0 1:0 32 1] [3 0] 1 0
s 10.057181945 _1_ AGT  --- 12 ack 40 [0 0 0 0] ------- [1:0 0:0 32 0] [3 0] 0 0
r 10.057181945 _1_ RTR  --- 12 ack 40 [0 0 0 0] ------- [1:0 0:0 32 0] [3 0] 0 0
s 10.057181945 _1_ RTR  --- 12 ack 60 [0 0 0 0] ------- [1:0 0:0 32 0] [3 0] 0 0
r 10.059566394 _0_ AGT  --- 12 ack 60 [13a 0 1 800] ------- [1:0 0:0 32 0] [3 0] 1 0
s 10.059566394 _0_ AGT  --- 13 tcp 1040 [0 0 0 0] ------- [0:0 1:0 32 0] [7 0] 0 0
r 10.059566394 _0_ RTR  --- 13 tcp 1040 [0 0 0 0] ------- [0:0 1:0 32 0] [7 0] 0 0
s 10.059566394 _0_ RTR  --- 13 tcp 1060 [0 0 0 0] ------- [0:0 1:0 32 1] [7 0] 0 0
s 10.059566394 _0_ AGT  --- 14 tcp 1040 [0 0 0 0] ------- [0:0 1:0 32 0] [8 0] 0 0
r 10.059566394 _0_ RTR  --- 14 tcp 1040 [0 0 0 0] ------- [0:0 1:0 32 0] [8 0] 0 0
s 10.059566394 _0_ RTR  --- 14 tcp 1060 [0 0 0 0] ------- [0:0 1:0 32 1] [8 0] 0 0
r 10.082399441 _1_ AGT  --- 8 tcp 1060 [13a 1 0 800] ------- [0:0 1:0 32 1] [4 0] 1 0
s 10.082399441 _1_ AGT  --- 15 ack 40 [0 0 0 0] ------- [1:0 0:0 32 0] [4 0] 0 0
r 10.082399441 _1_ RTR  --- 15 ack 40 [0 0 0 0] ------- [1:0 0:0 32 0] [4 0] 0 0
s 10.082399441 _1_ RTR  --- 15 ack 60 [0 0 0 0] ------- [1:0 0:0 32 0] [4 0] 0 0
r 10.092524039 _1_ AGT  --- 10 tcp 1060 [13a 1 0 800] ------- [0:0 1:0 32 1] [5 0] 1 0
s 10.092524039 _1_ AGT  --- 16 ack 40 [0 0 0 0] ------- [1:0 0:0 32 0] [5 0] 0 0
r 10.092524039 _1_ RTR  --- 16 ack 40 [0 0 0 0] ------- [1:0 0:0 32 0] [5 0] 0 0
s 10.092524039 _1_ RTR  --- 16 ack 60 [0 0 0 0] ------- [1:0 0:0 32 0] [5 0] 0 0
r 10.102588636 _1_ AGT  --- 11 tcp 1060 [13a 1 0 800] ------- [0:0 1:0 32 1] [6 0] 1 0
s 10.102588636 _1_ AGT  --- 17 ack 40 [0 0 0 0] ------- [1:0 0:0 32 0] [6 0] 0 0
r 10.102588636 _1_ RTR  --- 17 ack 40 [0 0 0 0] ------- [1:0 0:0 32 0] [6 0] 0 0
s 10.102588636 _1_ RTR  --- 17 ack 60 [0 0 0 0] ------- [1:0 0:0 32 0] [6 0] 0 0
r 10.112853233 _1_ AGT  --- 13 tcp 1060 [13a 1 0 800] ------- [0:0 1:0 32 1] [7 0] 1 0
s 10.112853233 _1_ AGT  --- 18 ack 40 [0 0 0 0] ------- [1:0 0:0 32 0] [7 0] 0 0
r 10.112853233 _1_ RTR  --- 18 ack 40 [0 0 0 0] ------- [1:0 0:0 32 0] [7 0] 0 0
s 10.112853233 _1_ RTR  --- 18 ack 60 [0 0 0 0] ------- [1:0 0:0 32 0] [7 0] 0 0
r 10.123037830 _1_ AGT  --- 14 tcp 1060 [13a 1 0 800] ------- [0:0 1:0 32 1] [8 0] 1 0
s 10.123037830 _1_ AGT  --- 19 ack 40 [0 0 0 0] ------- [1:0 0:0 32 0] [8 0] 0 0
r 10.123037830 _1_ RTR  --- 19 ack 40 [0 0 0 0] ------- [1:0 0:0 32 0] [8 0] 0 0
s 10.123037830 _1_ RTR  --- 19 ack 60 [0 0 0 0] ------- [1:0 0:0 32 0] [8 0] 0 0
r 10.127906874 _0_ AGT  --- 15 ack 60 [13a 0 1 800] ------- [1:0 0:0 32 0] [4 0] 1 0
s 10.127906874 _0_ AGT  --- 20 tcp 1040 [0 0 0 0] ------- [0:0 1:0 32 0] [9 0] 0 0
r 10.127906874 _0_ RTR  --- 20 tcp 1040 [0 0 0 0] ------- [0:0 1:0 32 0] [9 0] 0 0
s 10.127906874 _0_ RTR  --- 20 tcp 1060 [0 0 0 0] ------- [0:0 1:0 32 1] [9 0] 0 0
s 10.127906874 _0_ AGT  --- 21 tcp 1040 [0 0 0 0] ------- [0:0 1:0 32 0] [10 0] 0 0
r 10.127906874 _0_ RTR  --- 21 tcp 1040 [0 0 0 0] ------- [0:0 1:0 32 0] [10 0] 0 0
s 10.127906874 _0_ RTR  --- 21 tcp 1060 [0 0 0 0] ------- [0:0 1:0 32 1] [10 0] 0 0
r 10.140145917 _1_ AGT  --- 20 tcp 1060 [13a 1 0 800] ------- [0:0 1:0 32 1] [9 0] 1 0
s 10.140145917 _1_ AGT  --- 22 ack 40 [0 0 0 0] ------- [1:0 0:0 32 0] [9 0] 0 0
r 10.140145917 _1_ RTR  --- 22 ack 40 [0 0 0 0] ------- [1:0 0:0 32 0] [9 0] 0 0
s 10.140145917 _1_ RTR  --- 22 ack 60 [0 0 0 0] ------- [1:0 0:0 32 0] [9 0] 0 0
r 10.150190514 _1_ AGT  --- 21 tcp 1060 [13a 1 0 800] ------- [0:0 1:0 32 1] [10 0] 1 0
s 10.150190514 _1_ AGT  --- 23 ack 40 [0 0 0 0] ------- [1:0 0:0 32 0] [10 0] 0 0
r 10.150190514 _1_ RTR  --- 23 ack 40 [0 0 0 0] ------- [1:0 0:0 32 0] [10 0] 0 0
s 10.150190514 _1_ RTR  --- 23 ack 60 [0 0 0 0] ------- [1:0 0:0 32 0] [10 0] 0 0
r 10.152254960 _0_ AGT  --- 16 ack 60 [13a 0 1 800] ------- [1:0 0:0 32 0] [5 0] 1 0
s 10.152254960 _0_ AGT  --- 24 tcp 1040 [0 0 0 0] ------- [0:0 1:0 32 0] [11 0] 0 0
r 10.152254960 _0_ RTR  --- 24 tcp 1040 [0 0 0 0] ------- [0:0 1:0 32 0] [11 0] 0 0
s 10.152254960 _0_ RTR  --- 24 tcp 1060 [0 0 0 0] ------- [0:0 1:0 32 1] [11 0] 0 0
s 10.152254960 _0_ AGT  --- 25 tcp 1040 [0 0 0 0] ------- [0:0 1:0 32 0] [12 0] 0 0
r 10.152254960 _0_ RTR  --- 25 tcp 1040 [0 0 0 0] ------- [0:0 1:0 32 0] [12 0] 0 0
s 10.152254960 _0_ RTR  --- 25 tcp 1060 [0 0 0 0] ------- [0:0 1:0 32 1] [12 0] 0 0
r 10.162299407 _1_ AGT  --- 24 tcp 1060 [13a 1 0 800] ------- [0:0 1:0 32 1] [11 0] 1 0
s 10.162299407 _1_ AGT  --- 26 ack 40 [0 0 0 0] ------- [1:0 0:0 32 0] [11 0] 0 0
r 10.162299407 _1_ RTR  --- 26 ack 40 [0 0 0 0] ------- [1:0 0:0 32 0] [11 0] 0 0
s 10.162299407 _1_ RTR  --- 26 ack 60 [0 0 0 0] ------- [1:0 0:0 32 0] [11 0] 0 0
r 10.164583854 _0_ AGT  --- 17 ack 60 [13a 0 1 800] ------- [1:0 0:0 32 0] [6 0] 1 0
s 10.164583854 _0_ AGT  --- 27 tcp 1040 [0 0 0 0] ------- [0:0 1:0 32 0] [13 0] 0 0
r 10.164583854 _0_ RTR  --- 27 tcp 1040 [0 0 0 0] ------- [0:0 1:0 32 0] [13 0] 0 0
s 10.164583854 _0_ RTR  --- 27 tcp 1060 [0 0 0 0] ------- [0:0 1:0 32 1] [13 0] 0 0
s 10.164583854 _0_ AGT  --- 28 tcp 1040 [0 0 0 0] ------- [0:0 1:0 32 0] [14 0] 0 0
r 10.164583854 _0_ RTR  --- 28 tcp 1040 [0 0 0 0] ------- [0:0 1:0 32 0] [14 0] 0 0
s 10.164583854 _0_ RTR  --- 28 tcp 1060 [0 0 0 0] ------- [0:0 1:0 32 1] [14 0] 0 0
r 10.178707044 _0_ AGT  --- 18 ack 60 [13a 0 1 800] ------- [1:0 0:0 32 0] [7 0] 1 0
s 10.178707044 _0_ AGT  --- 29 tcp 1040 [0 0 0 0] ------- [0:0 1:0 32 0] [15 0] 0 0
r 10.178707044 _0_ RTR  --- 29 tcp 1040 [0 0 0 0] ------- [0:0 1:0 32 0] [15 0] 0 0
s 10.178707044 _0_ RTR  --- 29 tcp 1060 [0 0 0 0] ------- [0:0 1:0 32 1] [15 0] 0 0
s 10.178707044 _0_ AGT  --- 30 tcp 1040 [0 0 0 0] ------- [0:0 1:0 32 0] [16 0] 0 0
r 10.178707044 _0_ RTR  --- 30 tcp 1040 [0 0 0 0] ------- [0:0 1:0 32 0] [16 0] 0 0
s 10.178707044 _0_ RTR  --- 30 tcp 1060 [0 0 0 0] ------- [0:0 1:0 32 1] [16 0] 0 0
r 10.184980234 _0_ AGT  --- 19 ack 60 [13a 0 1 800] ------- [1:0 0:0 32 0] [8 0] 1 0
s 10.184980234 _0_ AGT  --- 31 tcp 1040 [0 0 0 0] ------- [0:0 1:0 32 0] [17 0] 0 0
r 10.184980234 _0_ RTR  --- 31 tcp 1040 [0 0 0 0] ------- [0:0 1:0 32 0] [17 0] 0 0
s 10.184980234 _0_ RTR  --- 31 tcp 1060 [0 0 0 0] ------- [0:0 1:0 32 1] [17 0] 0 0
s 10.184980234 _0_ AGT  --- 32 tcp 1040 [0 0 0 0] ------- [0:0 1:0 32 0] [18 0] 0 0
r 10.184980234 _0_ RTR  --- 32 tcp 1040 [0 0 0 0] ------- [0:0 1:0 32 0] [18 0] 0 0
s 10.184980234 _0_ RTR  --- 32 tcp 1060 [0 0 0 0] ------- [0:0 1:0 32 1] [18 0] 0 0
r 10.187044829 _0_ AGT  --- 22 ack 60 [13a 0 1 800] ------- [1:0 0:0 32 0] [9 0] 1 0
s 10.187044829 _0_ AGT  --- 33 tcp 1040 [0 0 0 0] ------- [0:0 1:0 32 0] [19 0] 0 0
r 10.187044829 _0_ RTR  --- 33 tcp 1040 [0 0 0 0] ------- [0:0 1:0 32 0] [19 0] 0 0
s 10.187044829 _0_ RTR  --- 33 tcp 1060 [0 0 0 0] ------- [0:0 1:0 32 1] [19 0] 0 0
s 10.187044829 _0_ AGT  --- 34 tcp 1040 [0 0 0 0] ------- [0:0 1:0 32 0] [20 0] 0 0
r 10.187044829 _0_ RTR  --- 34 tcp 1040 [0 0 0 0] ------- [0:0 1:0 32 0] [20 0] 0 0
s 10.187044829 _0_ RTR  --- 34 tcp 1060 [0 0 0 0] ------- [0:0 1:0 32 1] [20 0] 0 0
r 10.189329423 _0_ AGT  --- 23 ack 60 [13a 0 1 800] ------- [1:0 0:0 32 0] [10 0] 1 0
s 10.189329423 _0_ AGT  --- 35 tcp 1040 [0 0 0 0] ------- [0:0 1:0 32 0] [21 0] 0 0
r 10.189329423 _0_ RTR  --- 35 tcp 1040 [0 0 0 0] ------- [0:0 1:0 32 0] [21 0] 0 0
s 10.189329423 _0_ RTR  --- 35 tcp 1060 [0 0 0 0] ------- [0:0 1:0 32 1] [21 0] 0 0
s 10.189329423 _0_ AGT  --- 36 tcp 1040 [0 0 0 0] ------- [0:0 1:0 32 0] [22 0] 0 0
r 10.189329423 _0_ RTR  --- 36 tcp 1040 [0 0 0 0] ------- [0:0 1:0 32 0] [22 0] 0 0
s 10.189329423 _0_ RTR  --- 36 tcp 1060 [0 0 0 0] ------- [0:0 1:0 32 1] [22 0] 0 0
r 10.192834316 _0_ AGT  --- 26 ack 60 [13a 0 1 800] ------- [1:0 0:0 32 0] [11 0] 1 0
s 10.192834316 _0_ AGT  --- 37 tcp 1040 [0 0 0 0] ------- [0:0 1:0 32 0] [23 0] 0 0
r 10.192834316 _0_ RTR  --- 37 tcp 1040 [0 0 0 0] ------- [0:0 1:0 32 0] [23 0] 0 0
s 10.192834316 _0_ RTR  --- 37 tcp 1060 [0 0 0 0] ------- [0:0 1:0 32 1] [23 0] 0 0
s 10.192834316 _0_ AGT  --- 38 tcp 1040 [0 0 0 0] ------- [0:0 1:0 32 0] [24 0] 0 0
r 10.192834316 _0_ RTR  --- 38 tcp 1040 [0 0 0 0] ------- [0:0 1:0 32 0] [24 0] 0 0
s 10.192834316 _0_ RTR  --- 38 tcp 1060 [0 0 0 0] ------- [0:0 1:0 32 1] [24 0] 0 0
r 10.208738761 _1_ AGT  --- 25 tcp 1060 [13a 1 0 800] ------- [0:0 1:0 32 1] [12 0] 1 0
s 10.208738761 _1_ AGT  --- 39 ack 40 [0 0 0 0] ------- [1:0 0:0 32 0] [12 0] 0 0
r 10.208738761 _1_ RTR  --- 39 ack 40 [0 0 0 0] ------- [1:0 0:0 32 0] [12 0] 0 0
s 10.208738761 _1_ RTR  --- 39 ack 60 [0 0 0 0] ------- [1:0 0:0 32 0] [12 0] 0 0
r 10.218743356 _1_ AGT  --- 27 tcp 1060 [13a 1 0 800] ------- [0:0 1:0 32 1] [13 0] 1 0
s 10.218743356 _1_ AGT  --- 40 ack 40 [0 0 0 0] ------- [1:0 0:0 32 0] [13 0] 0 0
r 10.218743356 _1_ RTR  --- 40 ack 40 [0 0 0 0] ------- [1:0 0:0 32 0] [13 0] 0 0
s 10.218743356 _1_ RTR  --- 40 ack 60 [0 0 0 0] ------- [1:0 0:0 32 0] [13 0] 0 0
r 10.220987801 _0_ AGT  --- 39 ack 60 [13a 0 1 800] ------- [1:0 0:0 32 0] [12 0] 1 0
s 10.220987801 _0_ AGT  --- 41 tcp 1040 [0 0 0 0] ------- [0:0 1:0 32 0] [25 0] 0 0
r 10.220987801 _0_ RTR  --- 41 tcp 1040 [0 0 0 0] ------- [0:0 1:0 32 0] [25 0] 0 0
s 10.220987801 _0_ RTR  --- 41 tcp 1060 [0 0 0 0] ------- [0:0 1:0 32 1] [25 0] 0 0
s 10.220987801 _0_ AGT  --- 42 tcp 1040 [0 0 0 0] ------- [0:0 1:0 32 0] [26 0] 0 0
r 10.220987801 _0_ RTR  --- 42 tcp 1040 [0 0 0 0] ------- [0:0 1:0 32 0] [26 0] 0 0
s 10.220987801 _0_ RTR  --- 42 tcp 1060 [0 0 0 0] ------- [0:0 1:0 32 1] [26 0] 0 0
r 10.223212395 _0_ AGT  --- 40 ack 60 [13a 0 1 800] ------- [1:0 0:0 32 0] [13 0] 1 0
s 10.223212395 _0_ AGT  --- 43 tcp 1040 [0 0 0 0] ------- [0:0 1:0 32 0] [27 0] 0 0
r 10.223212395 _0_ RTR  --- 43 tcp 1040 [0 0 0 0] ------- [0:0 1:0 32 0] [27 0] 0 0
s 10.223212395 _0_ RTR  --- 43 tcp 1060 [0 0 0 0] ------- [0:0 1:0 32 1] [27 0] 0 0
s 10.223212395 _0_ AGT  --- 44 tcp 1040 [0 0 0 0] ------- [0:0 1:0 32 0] [28 0] 0 0
r 10.223212395 _0_ RTR  --- 44 tcp 1040 [0 0 0 0] ------- [0:0 1:0 32 0] [28 0] 0 0
s 10.223212395 _0_ RTR  --- 44 tcp 1060 [0 0 0 0] ------- [0:0 1:0 32 1] [28 0] 0 0
r 10.254970027 _1_ AGT  --- 28 tcp 1060 [13a 1 0 800] ------- [0:0 1:0 32 1] [14 0] 1 0
s 10.254970027 _1_ AGT  --- 45 ack 40 [0 0 0 0] ------- [1:0 0:0 32 0] [14 0] 0 0
r 10.254970027 _1_ RTR  --- 45 ack 40 [0 0 0 0] ------- [1:0 0:0 32 0] [14 0] 0 0
s 10.254970027 _1_ RTR  --- 45 ack 60 [0 0 0 0] ------- [1:0 0:0 32 0] [14 0] 0 0
r 10.265074620 _1_ AGT  --- 29 tcp 1060 [13a 1 0 800] ------- [0:0 1:0 32 1] [15 0] 1 0
s 10.265074620 _1_ AGT  --- 46 ack 40 [0 0 0 0] ------- [1:0 0:0 32 0] [15 0] 0 0
r 10.265074620 _1_ RTR  --- 46 ack 40 [0 0 0 0] ------- [1:0 0:0 32 0] [15 0] 0 0
s 10.265074620 _1_ RTR  --- 46 ack 60 [0 0 0 0] ------- [1:0 0:0 32 0] [15 0] 0 0
r 10.275259212 _1_ AGT  --- 30 tcp 1060 [13a 1 0 800] ------- [0:0 1:0 32 1] [16 0] 1 0
s 10.275259212 _1_ AGT  --- 47 ack 40 [0 0 0 0] ------- [1:0 0:0 32 0] [16 0] 0 0
r 10.275259212 _1_ RTR  --- 47 ack 40 [0 0 0 0] ------- [1:0 0:0 32 0] [16 0] 0 0
s 10.275259212 _1_ RTR  --- 47 ack 60 [0 0 0 0] ------- [1:0 0:0 32 0] [16 0] 0 0
r 10.285343805 _1_ AGT  --- 31 tcp 1060 [13a 1 0 800] ------- [0:0 1:0 32 1] [17 0] 1 0
s 10.285343805 _1_ AGT  --- 48 ack 40 [0 0 0 0] ------- [1:0 0:0 32 0] [17 0] 0 0
r 10.285343805 _1_ RTR  --- 48 ack 40 [0 0 0 0] ------- [1:0 0:0 32 0] [17 0] 0 0
s 10.285343805 _1_ RTR  --- 48 ack 60 [0 0 0 0] ------- [1:0 0:0 32 0] [17 0] 0 0
r 10.287368249 _0_ AGT  --- 45 ack 60 [13a 0 1 800] ------- [1:0 0:0 32 0] [14 0] 1 0
s 10.287368249 _0_ AGT  --- 49 tcp 1040 [0 0 0 0] ------- [0:0 1:0 32 0] [29 0] 0 0
r 10.287368249 _0_ RTR  --- 49 tcp 1040 [0 0 0 0] ------- [0:0 1:0 32 0] [29 0] 0 0
s 10.287368249 _0_ RTR  --- 49 tcp 1060 [0 0 0 0] ------- [0:0 1:0 32 1] [29 0] 0 0
s 10.287368249 _0_ AGT  --- 50 tcp 1040 [0 0 0 0] ------- [0:0 1:0 32 0] [30 0] 0 0
r 10.287368249 _0_ RTR  --- 50 tcp 1040 [0 0 0 0] ------- [0:0 1:0 32 0] [30 0] 0 0
s 10.287368249 _0_ RTR  --- 50 tcp 1060 [0 0 0 0] ------- [0:0 1:0 32 1] [30 0] 0 0
r 10.297412693 _1_ AGT  --- 32 tcp 1060 [13a 1 0 800] ------- [0:0 1:0 32 1] [18 0] 1 0
s 10.297412693 _1_ AGT  --- 51 ack 40 [0 0 0 0] ------- [1:0 0:0 32 0] [18 0] 0 0
r 10.297412693 _1_ RTR  --- 51 ack 40 [0 0 0 0] ------- [1:0 0:0 32 0] [18 0] 0 0
s 10.297412693 _1_ RTR  --- 51 ack 60 [0 0 0 0] ------- [1:0 0:0 32 0] [18 0] 0 0
r 10.307597284 _1_ AGT  --- 33 tcp 1060 [13a 1 0 800] ------- [0:0 1:0 32 1] [19 0] 1 0
s 10.307597284 _1_ AGT  --- 52 ack 40 [0 0 0 0] ------- [1:0 0:0 32 0] [19 0] 0 0
r 10.307597284 _1_ RTR  --- 52 ack 40 [0 0 0 0] ------- [1:0 0:0 32 0] [19 0] 0 0
s 10.307597284 _1_ RTR  --- 52 ack 60 [0 0 0 0] ------- [1:0 0:0 32 0] [19 0] 0 0
r 10.309601728 _0_ AGT  --- 46 ack 60 [13a 0 1 800] ------- [1:0 0:0 32 0] [15 0] 1 0
s 10.309601728 _0_ AGT  --- 53 tcp 1040 [0 0 0 0] ------- [0:0 1:0 32 0] [31 0] 0 0
r 10.309601728 _0_ RTR  --- 53 tcp 1040 [0 0 0 0] ------- [0:0 1:0 32 0] [31 0] 0 0
s 10.309601728 _0_ RTR  --- 53 tcp 1060 [0 0 0 0] ------- [0:0 1:0 32 1] [31 0] 0 0
s 10.309601728 _0_ AGT  --- 54 tcp 1040 [0 0 0 0] ------- [0:0 1:0 32 0] [32 0] 0 0
r 10.309601728 _0_ RTR  --- 54 tcp 1040 [0 0 0 0] ------- [0:0 1:0 32 0] [32 0] 0 0
s 10.309601728 _0_ RTR  --- 54 tcp 1060 [0 0 0 0] ------- [0:0 1:0 32 1] [32 0] 0 0
r 10.319646171 _1_ AGT  --- 34 tcp 1060 [13a 1 0 800] ------- [0:0 1:0 32 1] [20 0] 1 0
s 10.319646171 _1_ AGT  --- 55 ack 40 [0 0 0 0] ------- [1:0 0:0 32 0] [20 0] 0 0
r 10.319646171 _1_ RTR  --- 55 ack 40 [0 0 0 0] ------- [1:0 0:0 32 0] [20 0] 0 0
s 10.319646171 _1_ RTR  --- 55 ack 60 [0 0 0 0] ------- [1:0 0:0 32 0] [20 0] 0 0
r 10.321930615 _0_ AGT  --- 47 ack 60 [13a 0 1 800] ------- [1:0 0:0 32 0] [16 0] 1 0
s 10.321930615 _0_ AGT  --- 56 tcp 1040 [0 0 0 0] ------- [0:0 1:0 32 0] [33 0] 0 0
r 10.321930615 _0_ RTR  --- 56 tcp 1040 [0 0 0 0] ------- [0:0 1:0 32 0] [33 0] 0 0
s 10.321930615 _0_ RTR  --- 56 tcp 1060 [0 0 0 0] ------- [0:0 1:0 32 1] [33 0] 0 0
s 10.321930615 _0_ AGT  --- 57 tcp 1040 [0 0 0 0] ------- [0:0 1:0 32 0] [34 0] 0 0
r 10.321930615 _0_ RTR  --- 57 tcp 1040 [0 0 0 0] ------- [0:0 1:0 32 0] [34 0] 0 0
s 10.321930615 _0_ RTR  --- 57 tcp 1060 [0 0 0 0] ------- [0:0 1:0 32 1] [34 0] 0 0
r 10.324035206 _0_ AGT  --- 48 ack 60 [13a 0 1 800] ------- [1:0 0:0 32 0] [17 0] 1 0
s 10.324035206 _0_ AGT  --- 58 tcp 1040 [0 0 0 0] ------- [0:0 1:0 32 0] [35 0] 0 0
r 10.324035206 _0_ RTR  --- 58 tcp 1040 [0 0 0 0] ------- [0:0 1:0 32 0] [35 0] 0 0
s 10.324035206 _0_ RTR  --- 58 tcp 1060 [0 0 0 0] ------- [0:0 1:0 32 1] [35 0] 0 0
s 10.324035206 _0_ AGT  --- 59 tcp 1040 [0 0 0 0] ------- [0:0 1:0 32 0] [36 0] 0 0
r 10.324035206 _0_ RTR  --- 59 tcp 1040 [0 0 0 0] ------- [0:0 1:0 32 0] [36 0] 0 0
s 10.324035206 _0_ RTR  --- 59 tcp 1060 [0 0 0 0] ------- [0:0 1:0 32 1] [36 0] 0 0
r 10.328148092 _0_ AGT  --- 51 ack 60 [13a 0 1 800] ------- [1:0 0:0 32 0] [18 0] 1 0
s 10.328148092 _0_ AGT  --- 60 tcp 1040 [0 0 0 0] ------- [0:0 1:0 32 0] [37 0] 0 0
r 10.328148092 _0_ RTR  --- 60 tcp 1040 [0 0 0 0] ------- [0:0 1:0 32 0] [37 0] 0 0
s 10.328148092 _0_ RTR  --- 60 tcp 1060 [0 0 0 0] ------- [0:0 1:0 32 1] [37 0] 0 0
s 10.328148092 _0_ AGT  --- 61 tcp 1040 [0 0 0 0] ------- [0:0 1:0 32 0] [38 0] 0 0
r 10.328148092 _0_ RTR  --- 61 tcp 1040 [0 0 0 0] ------- [0:0 1:0 32 0] [38 0] 0 0
s 10.328148092 _0_ RTR  --- 61 tcp 1060 [0 0 0 0] ------- [0:0 1:0 32 1] [38 0] 0 0
r 10.338252535 _1_ AGT  --- 35 tcp 1060 [13a 1 0 800] ------- [0:0 1:0 32 1] [21 0] 1 0
s 10.338252535 _1_ AGT  --- 62 ack 40 [0 0 0 0] ------- [1:0 0:0 32 0] [21 0] 0 0
r 10.338252535 _1_ RTR  --- 62 ack 40 [0 0 0 0] ------- [1:0 0:0 32 0] [21 0] 0 0
s 10.338252535 _1_ RTR  --- 62 ack 60 [0 0 0 0] ------- [1:0 0:0 32 0] [21 0] 0 0
r 10.341997274 _0_ AGT  --- 52 ack 60 [13a 0 1 800] ------- [1:0 0:0 32 0] [19 0] 1 0
s 10.341997274 _0_ AGT  --- 63 tcp 1040 [0 0 0 0] ------- [0:0 1:0 32 0] [39 0] 0 0
r 10.341997274 _0_ RTR  --- 63 tcp 1040 [0 0 0 0] ------- [0:0 1:0 32 0] [39 0] 0 0
s 10.341997274 _0_ RTR  --- 63 tcp 1060 [0 0 0 0] ------- [0:0 1:0 32 1] [39 0] 0 0
r 10.352521716 _1_ AGT  --- 36 tcp 1060 [13a 1 0 800] ------- [0:0 1:0 32 1] [22 0] 1 0
s 10.352521716 _1_ AGT  --- 64 ack 40 [0 0 0 0] ------- [1:0 0:0 32 0] [22 0] 0 0
r 10.352521716 _1_ RTR  --- 64 ack 40 [0 0 0 0] ------- [1:0 0:0 32 0] [22 0] 0 0
s 10.352521716 _1_ RTR  --- 64 ack 60 [0 0 0 0] ------- [1:0 0:0 32 0] [22 0] 0 0
r 10.364500307 _1_ AGT  --- 37 tcp 1060 [13a 1 0 800] ------- [0:0 1:0 32 1] [23 0] 1 0
s 10.364500307 _1_ AGT  --- 65 ack 40 [0 0 0 0] ------- [1:0 0:0 32 0] [23 0] 0 0
r 10.364500307 _1_ RTR  --- 65 ack 40 [0 0 0 0] ------- [1:0 0:0 32 0] [23 0] 0 0
s 10.364500307 _1_ RTR  --- 65 ack 60 [0 0 0 0] ------- [1:0 0:0 32 0] [23 0] 0 0
r 10.374784896 _1_ AGT  --- 38 tcp 1060 [13a 1 0 800] ------- [0:0 1:0 32 1] [24 0] 1 0
s 10.374784896 _1_ AGT  --- 66 ack 40 [0 0 0 0] ------- [1:0 0:0 32 0] [24 0] 0 0
r 10.374784896 _1_ RTR  --- 66 ack 40 [0 0 0 0] ------- [1:0 0:0 32 0] [24 0] 0 0
s 10.374784896 _1_ RTR  --- 66 ack 60 [0 0 0 0] ------- [1:0 0:0 32 0] [24 0] 0 0
r 10.376789339 _0_ AGT  --- 55 ack 60 [13a 0 1 800] ------- [1:0 0:0 32 0] [20 0] 1 0
s 10.376789339 _0_ AGT  --- 67 tcp 1040 [0 0 0 0] ------- [0:0 1:0 32 0] [40 0] 0 0
r 10.376789339 _0_ RTR  --- 67 tcp 1040 [0 0 0 0] ------- [0:0 1:0 32 0] [40 0] 0 0
s 10.376789339 _0_ RTR  --- 67 tcp 1060 [0 0 0 0] ------- [0:0 1:0 32 1] [40 0] 0 0
r 10.389148370 _1_ AGT  --- 41 tcp 1060 [13a 1 0 800] ------- [0:0 1:0 32 1] [25 0] 1 0
s 10.389148370 _1_ AGT  --- 68 ack 40 [0 0 0 0] ------- [1:0 0:0 32 0] [25 0] 0 0
r 10.389148370 _1_ RTR  --- 68 ack 40 [0 0 0 0] ------- [1:0 0:0 32 0] [25 0] 0 0
s 10.389148370 _1_ RTR  --- 68 ack 60 [0 0 0 0] ------- [1:0 0:0 32 0] [25 0] 0 0
r 10.399352959 _1_ AGT  --- 42 tcp 1060 [13a 1 0 800] ------- [0:0 1:0 32 1] [26 0] 1 0
s 10.399352959 _1_ AGT  --- 69 ack 40 [0 0 0 0] ------- [1:0 0:0 32 0] [26 0] 0 0
r 10.399352959 _1_ RTR  --- 69 ack 40 [0 0 0 0] ------- [1:0 0:0 32 0] [26 0] 0 0
s 10.399352959 _1_ RTR  --- 69 ack 60 [0 0 0 0] ------- [1:0 0:0 32 0] [26 0] 0 0
r 10.410303548 _1_ AGT  --- 43 tcp 1060 [13a 1 0 800] ------- [0:0 1:0 32 1] [27 0] 1 0
s 10.410303548 _1_ AGT  --- 70 ack 40 [0 0 0 0] ------- [1:0 0:0 32 0] [27 0] 0 0
r 10.410303548 _1_ RTR  --- 70 ack 40 [0 0 0 0] ------- [1:0 0:0 32 0] [27 0] 0 0
s 10.410303548 _1_ RTR  --- 70 ack 60 [0 0 0 0] ------- [1:0 0:0 32 0] [27 0] 0 0
r 10.420728137 _1_ AGT  --- 44 tcp 1060 [13a 1 0 800] ------- [0:0 1:0 32 1] [28 0] 1 0
s 10.420728137 _1_ AGT  --- 71 ack 40 [0 0 0 0] ------- [1:0 0:0 32 0] [28 0] 0 0
r 10.420728137 _1_ RTR  --- 71 ack 40 [0 0 0 0] ------- [1:0 0:0 32 0] [28 0] 0 0
s 10.420728137 _1_ RTR  --- 71 ack 60 [0 0 0 0] ------- [1:0 0:0 32 0] [28 0] 0 0
r 10.433266872 _0_ AGT  --- 62 ack 60 [13a 0 1 800] ------- [1:0 0:0 32 0] [21 0] 1 0
s 10.433266872 _0_ AGT  --- 72 tcp 1040 [0 0 0 0] ------- [0:0 1:0 32 0] [41 0] 0 0
r 10.433266872 _0_ RTR  --- 72 tcp 1040 [0 0 0 0] ------- [0:0 1:0 32 0] [41 0] 0 0
s 10.433266872 _0_ RTR  --- 72 tcp 1060 [0 0 0 0] ------- [0:0 1:0 32 1] [41 0] 0 0
r 10.437519754 _0_ AGT  --- 64 ack 60 [13a 0 1 800] ------- [1:0 0:0 32 0] [22 0] 1 0
s 10.437519754 _0_ AGT  --- 73 tcp 1040 [0 0 0 0] ------- [0:0 1:0 32 0] [42 0] 0 0
r 10.437519754 _0_ RTR  --- 73 tcp 1040 [0 0 0 0] ------- [0:0 1:0 32 0] [42 0] 0 0
s 10.437519754 _0_ RTR  --- 73 tcp 1060 [0 0 0 0] ------- [0:0 1:0 32 1] [42 0] 0 0
r 10.447764195 _1_ AGT  --- 49 tcp 1060 [13a 1 0 800] ------- [0:0 1:0 32 1] [29 0] 1 0
s 10.447764195 _1_ AGT  --- 74 ack 40 [0 0 0 0] ------- [1:0 0:0 32 0] [29 0] 0 0
r 10.447764195 _1_ RTR  --- 74 ack 40 [0 0 0 0] ------- [1:0 0:0 32 0] [29 0] 0 0
s 10.447764195 _1_ RTR  --- 74 ack 60 [0 0 0 0] ------- [1:0 0:0 32 0] [29 0] 0 0
r 10.458168783 _1_ AGT  --- 50 tcp 1060 [13a 1 0 800] ------- [0:0 1:0 32 1] [30 0] 1 0
s 10.458168783 _1_ AGT  --- 75 ack 40 [0 0 0 0] ------- [1:0 0:0 32 0] [30 0] 0 0
r 10.458168783 _1_ RTR  --- 75 ack 40 [0 0 0 0] ------- [1:0 0:0 32 0] [30 0] 0 0
s 10.458168783 _1_ RTR  --- 75 ack 60 [0 0 0 0] ------- [1:0 0:0 32 0] [30 0] 0 0
r 10.468653370 _1_ AGT  --- 53 tcp 1060 [13a 1 0 800] ------- [0:0 1:0 32 1] [31 0] 1 0
s 10.468653370 _1_ AGT  --- 76 ack 40 [0 0 0 0] ------- [1:0 0:0 32 0] [31 0] 0 0
r 10.468653370 _1_ RTR  --- 76 ack 40 [0 0 0 0] ------- [1:0 0:0 32 0] [31 0] 0 0
s 10.468653370 _1_ RTR  --- 76 ack 60 [0 0 0 0] ------- [1:0 0:0 32 0] [31 0] 0 0
r 10.480962250 _1_ AGT  --- 54 tcp 1060 [13a 1 0 800] ------- [0:0 1:0 32 1] [32 0] 1 0
s 10.480962250 _1_ AGT  --- 77 ack 40 [0 0 0 0] ------- [1:0 0:0 32 0] [32 0] 0 0
r 10.480962250 _1_ RTR  --- 77 ack 40 [0 0 0 0] ------- [1:0 0:0 32 0] [32 0] 0 0
s 10.480962250 _1_ RTR  --- 77 ack 60 [0 0 0 0] ------- [1:0 0:0 32 0] [32 0] 0 0
r 10.482966690 _0_ AGT  --- 65 ack 60 [13a 0 1 800] ------- [1:0 0:0 32 0] [23 0] 1 0
s 10.482966690 _0_ AGT  --- 78 tcp 1040 [0 0 0 0] ------- [0:0 1:0 32 0] [43 0] 0 0
r 10.482966690 _0_ RTR  --- 78 tcp 1040 [0 0 0 0] ------- [0:0 1:0 32 0] [43 0] 0 0
s 10.482966690 _0_ RTR  --- 78 tcp 1060 [0 0 0 0] ------- [0:0 1:0 32 1] [43 0] 0 0
r 10.492971130 _1_ AGT  --- 56 tcp 1060 [13a 1 0 800] ------- [0:0 1:0 32 1] [33 0] 1 0
s 10.492971130 _1_ AGT  --- 79 ack 40 [0 0 0 0] ------- [1:0 0:0 32 0] [33 0] 0 0
r 10.492971130 _1_ RTR  --- 79 ack 40 [0 0 0 0] ------- [1:0 0:0 32 0] [33 0] 0 0
s 10.492971130 _1_ RTR  --- 79 ack 60 [0 0 0 0] ------- [1:0 0:0 32 0] [33 0] 0 0
r 10.503055717 _1_ AGT  --- 57 tcp 1060 [13a 1 0 800] ------- [0:0 1:0 32 1] [34 0] 1 0
s 10.503055717 _1_ AGT  --- 80 ack 40 [0 0 0 0] ------- [1:0 0:0 32 0] [34 0] 0 0
r 10.503055717 _1_ RTR  --- 80 ack 40 [0 0 0 0] ------- [1:0 0:0 32 0] [34 0] 0 0
s 10.503055717 _1_ RTR  --- 80 ack 60 [0 0 0 0] ------- [1:0 0:0 32 0] [34 0] 0 0
r 10.525268888 _1_ AGT  --- 58 tcp 1060 [13a 1 0 800] ------- [0:0 1:0 32 1] [35 0] 1 0
s 10.525268888 _1_ AGT  --- 81 ack 40 [0 0 0 0] ------- [1:0 0:0 32 0] [35 0] 0 0
r 10.525268888 _1_ RTR  --- 81 ack 40 [0 0 0 0] ------- [1:0 0:0 32 0] [35 0] 0 0
s 10.525268888 _1_ RTR  --- 81 ack 60 [0 0 0 0] ------- [1:0 0:0 32 0] [35 0] 0 0
r 10.527493328 _0_ AGT  --- 66 ack 60 [13a 0 1 800] ------- [1:0 0:0 32 0] [24 0] 1 0
s 10.527493328 _0_ AGT  --- 82 tcp 1040 [0 0 0 0] ------- [0:0 1:0 32 0] [44 0] 0 0
r 10.527493328 _0_ RTR  --- 82 tcp 1040 [0 0 0 0] ------- [0:0 1:0 32 0] [44 0] 0 0
s 10.527493328 _0_ RTR  --- 82 tcp 1060 [0 0 0 0] ------- [0:0 1:0 32 1] [44 0] 0 0
r 10.537857767 _1_ AGT  --- 59 tcp 1060 [13a 1 0 800] ------- [0:0 1:0 32 1] [36 0] 1 0
s 10.537857767 _1_ AGT  --- 83 ack 40 [0 0 0 0] ------- [1:0 0:0 32 0] [36 0] 0 0
r 10.537857767 _1_ RTR  --- 83 ack 40 [0 0 0 0] ------- [1:0 0:0 32 0] [36 0] 0 0
s 10.537857767 _1_ RTR  --- 83 ack 60 [0 0 0 0] ------- [1:0 0:0 32 0] [36 0] 0 0
r 10.547862352 _1_ AGT  --- 60 tcp 1060 [13a 1 0 800] ------- [0:0 1:0 32 1] [37 0] 1 0
s 10.547862352 _1_ AGT  --- 84 ack 40 [0 0 0 0] ------- [1:0 0:0 32 0] [37 0] 0 0
r 10.547862352 _1_ RTR  --- 84 ack 40 [0 0 0 0] ------- [1:0 0:0 32 0] [37 0] 0 0
s 10.547862352 _1_ RTR  --- 84 ack 60 [0 0 0 0] ------- [1:0 0:0 32 0] [37 0] 0 0
r 10.557866937 _1_ AGT  --- 61 tcp 1060 [13a 1 0 800] ------- [0:0 1:0 32 1] [38 0] 1 0
s 10.557866937 _1_ AGT  --- 85 ack 40 [0 0 0 0] ------- [1:0 0:0 32 0] [38 0] 0 0
r 10.557866937 _1_ RTR  --- 85 ack 40 [0 0 0 0] ------- [1:0 0:0 32 0] [38 0] 0 0
s 10.557866937 _1_ RTR  --- 85 ack 60 [0 0 0 0] ------- [1:0 0:0 32 0] [38 0] 0 0
r 10.559871375 _0_ AGT  --- 68 ack 60 [13a 0 1 800] ------- [1:0 0:0 32 0] [25 0] 1 0
s 10.559871375 _0_ AGT  --- 86 tcp 1040 [0 0 0 0] ------- [0:0 1:0 32 0] [45 0] 0 0
r 10.559871375 _0_ RTR  --- 86 tcp 1040 [0 0 0 0] ------- [0:0 1:0 32 0] [45 0] 0 0
s 10.559871375 _0_ RTR  --- 86 tcp 1060 [0 0 0 0] ------- [0:0 1:0 32 1] [45 0] 0 0
r 10.569915813 _1_ AGT  --- 63 tcp 1060 [13a 1 0 800] ------- [0:0 1:0 32 1] [39 0] 1 0
s 10.569915813 _1_ AGT  --- 87 ack 40 [0 0 0 0] ------- [1:0 0:0 32 0] [39 0] 0 0
r 10.569915813 _1_ RTR  --- 87 ack 40 [0 0 0 0] ------- [1:0 0:0 32 0] [39 0] 0 0
s 10.569915813 _1_ RTR  --- 87 ack 60 [0 0 0 0] ------- [1:0 0:0 32 0] [39 0] 0 0
r 10.579920398 _1_ AGT  --- 67 tcp 1060 [13a 1 0 800] ------- [0:0 1:0 32 1] [40 0] 1 0
s 10.579920398 _1_ AGT  --- 88 ack 40 [0 0 0 0] ------- [1:0 0:0 32 0] [40 0] 0 0
r 10.579920398 _1_ RTR  --- 88 ack 40 [0 0 0 0] ------- [1:0 0:0 32 0] [40 0] 0 0
s 10.579920398 _1_ RTR  --- 88 ack 60 [0 0 0 0] ------- [1:0 0:0 32 0] [40 0] 0 0
r 10.582104836 _0_ AGT  --- 69 ack 60 [13a 0 1 800] ------- [1:0 0:0 32 0] [26 0] 1 0
s 10.582104836 _0_ AGT  --- 89 tcp 1040 [0 0 0 0] ------- [0:0 1:0 32 0] [46 0] 0 0
r 10.582104836 _0_ RTR  --- 89 tcp 1040 [0 0 0 0] ------- [0:0 1:0 32 0] [46 0] 0 0
s 10.582104836 _0_ RTR  --- 89 tcp 1060 [0 0 0 0] ------- [0:0 1:0 32 1] [46 0] 0 0
r 10.584469420 _0_ AGT  --- 70 ack 60 [13a 0 1 800] ------- [1:0 0:0 32 0] [27 0] 1 0
s 10.584469420 _0_ AGT  --- 90 tcp 1040 [0 0 0 0] ------- [0:0 1:0 32 0] [47 0] 0 0
r 10.584469420 _0_ RTR  --- 90 tcp 1040 [0 0 0 0] ------- [0:0 1:0 32 0] [47 0] 0 0
s 10.584469420 _0_ RTR  --- 90 tcp 1060 [0 0 0 0] ------- [0:0 1:0 32 1] [47 0] 0 0
r 10.586894003 _0_ AGT  --- 71 ack 60 [13a 0 1 800] ------- [1:0 0:0 32 0] [28 0] 1 0
s 10.586894003 _0_ AGT  --- 91 tcp 1040 [0 0 0 0] ------- [0:0 1:0 32 0] [48 0] 0 0
r 10.586894003 _0_ RTR  --- 91 tcp 1040 [0 0 0 0] ------- [0:0 1:0 32 0] [48 0] 0 0
s 10.586894003 _0_ RTR  --- 91 tcp 1060 [0 0 0 0] ------- [0:0 1:0 32 1] [48 0] 0 0
r 10.610197316 _1_ AGT  --- 72 tcp 1060 [13a 1 0 800] ------- [0:0 1:0 32 1] [41 0] 1 0
s 10.610197316 _1_ AGT  --- 92 ack 40 [0 0 0 0] ------- [1:0 0:0 32 0] [41 0] 0 0
r 10.610197316 _1_ RTR  --- 92 ack 40 [0 0 0 0] ------- [1:0 0:0 32 0] [41 0] 0 0
s 10.610197316 _1_ RTR  --- 92 ack 60 [0 0 0 0] ------- [1:0 0:0 32 0] [41 0] 0 0
r 10.612441754 _0_ AGT  --- 74 ack 60 [13a 0 1 800] ------- [1:0 0:0 32 0] [29 0] 1 0
s 10.612441754 _0_ AGT  --- 93 tcp 1040 [0 0 0 0] ------- [0:0 1:0 32 0] [49 0] 0 0
r 10.612441754 _0_ RTR  --- 93 tcp 1040 [0 0 0 0] ------- [0:0 1:0 32 0] [49 0] 0 0
s 10.612441754 _0_ RTR  --- 93 tcp 1060 [0 0 0 0] ------- [0:0 1:0 32 1] [49 0] 0 0
r 10.614606337 _0_ AGT  --- 75 ack 60 [13a 0 1 800] ------- [1:0 0:0 32 0] [30 0] 1 0
s 10.614606337 _0_ AGT  --- 94 tcp 1040 [0 0 0 0] ------- [0:0 1:0 32 0] [50 0] 0 0
r 10.614606337 _0_ RTR  --- 94 tcp 1040 [0 0 0 0] ------- [0:0 1:0 32 0] [50 0] 0 0
s 10.614606337 _0_ RTR  --- 94 tcp 1060 [0 0 0 0] ------- [0:0 1:0 32 1] [50 0] 0 0
r 10.624710774 _1_ AGT  --- 73 tcp 1060 [13a 1 0 800] ------- [0:0 1:0 32 1] [42 0] 1 0
s 10.624710774 _1_ AGT  --- 95 ack 40 [0 0 0 0] ------- [1:0 0:0 32 0] [42 0] 0 0