s 0.032821055 _1_ RTR  --- 0 message 32 [0 0 0 0] ------- [1:255 -1:255 32 0] 
s 0.178591360 _2_ RTR  --- 1 message 32 [0 0 0 0] ------- [2:255 -1:255 32 0] 
r 0.179672281 _0_ RTR  --- 1 message 32 [0 ffffffff 2 800] ------- [2:255 -1:255 32 0] 
s 1.113402886 _0_ RTR  --- 2 message 32 [0 0 0 0] ------- [0:255 -1:255 32 0] 
r 1.114383806 _2_ RTR  --- 2 message 32 [0 ffffffff 0 800] ------- [0:255 -1:255 32 0] 
M 10.00000 0 (5.00, 5.00, 0.00), (250.00, 250.00), 3.00
s 10.000000000 _0_ AGT  --- 3 tcp 40 [0 0 0 0] ------- [0:0 1:0 32 0] [0 0] 0 0
r 10.000000000 _0_ RTR  --- 3 tcp 40 [0 0 0 0] ------- [0:0 1:0 32 0] [0 0] 0 0
s 12.188269558 _0_ RTR  --- 4 message 32 [0 0 0 0] ------- [0:255 -1:255 32 0] 
s 12.523182412 _0_ RTR  --- 5 message 44 [0 0 0 0] ------- [0:255 -1:255 32 0] 
r 12.524299308 _2_ RTR  --- 5 message 44 [0 ffffffff 0 800] ------- [0:255 -1:255 32 0] 
s 13.000000000 _0_ AGT  --- 6 tcp 40 [0 0 0 0] ------- [0:0 1:0 32 0] [0 0] 0 0
r 13.000000000 _0_ RTR  --- 6 tcp 40 [0 0 0 0] ------- [0:0 1:0 32 0] [0 0] 0 0
s 13.826076487 _2_ RTR  --- 8 message 32 [0 0 0 0] ------- [2:255 -1:255 32 0] 
r 13.827337630 _1_ RTR  --- 8 message 32 [0 ffffffff 2 800] ------- [2:255 -1:255 32 0] 
s 14.283862945 _1_ RTR  --- 9 message 32 [0 0 0 0] ------- [1:255 -1:255 32 0] 
r 14.285224088 _2_ RTR  --- 9 message 32 [0 ffffffff 1 800] ------- [1:255 -1:255 32 0] 
M 15.00000 1 (490.00, 285.00, 0.00), (45.00, 285.00), 5.00
s 19.000000000 _0_ AGT  --- 10 tcp 40 [0 0 0 0] ------- [0:0 1:0 32 0] [0 0] 0 0
r 19.000000000 _0_ RTR  --- 10 tcp 40 [0 0 0 0] ------- [0:0 1:0 32 0] [0 0] 0 0
s 25.835848695 _1_ RTR  --- 11 message 32 [0 0 0 0] ------- [1:255 -1:255 32 0] 
r 25.836969660 _2_ RTR  --- 11 message 32 [0 ffffffff 1 800] ------- [1:255 -1:255 32 0] 
r 25.836970254 _0_ RTR  --- 11 message 32 [0 ffffffff 1 800] ------- [1:255 -1:255 32 0] 
s 26.294273543 _2_ RTR  --- 12 message 44 [0 0 0 0] ------- [2:255 -1:255 32 0] 
r 26.295270305 _0_ RTR  --- 12 message 44 [0 ffffffff 2 800] ------- [2:255 -1:255 32 0] 
s 26.295270305 _0_ RTR  --- 3 tcp 80 [0 0 0 0] ------- [0:0 1:0 32 2] [0 0] 0 0
s 26.295270305 _0_ RTR  --- 6 tcp 80 [0 0 0 0] ------- [0:0 1:0 32 2] [0 0] 0 0
D 26.295270305 _0_ IFQ  ARP 3 tcp 80 [0 0 0 800] ------- [0:0 1:0 32 2] [0 0] 0 0
s 26.295270305 _0_ RTR  --- 10 tcp 80 [0 0 0 0] ------- [0:0 1:0 32 2] [0 0] 0 0
D 26.295270305 _0_ IFQ  ARP 6 tcp 80 [0 0 0 800] ------- [0:0 1:0 32 2] [0 0] 0 0
r 26.350639269 _2_ RTR  --- 10 tcp 80 [13a 2 0 800] ------- [0:0 1:0 32 2] [0 0] 1 0
f 26.350639269 _2_ RTR  --- 10 tcp 80 [13a 2 0 800] ------- [0:0 1:0 31 1] [0 0] 1 0
r 26.362356784 _1_ AGT  --- 10 tcp 80 [13a 1 2 800] ------- [0:0 1:0 31 1] [0 0] 2 0
s 26.362356784 _1_ AGT  --- 13 ack 40 [0 0 0 0] ------- [1:0 0:0 32 0] [0 0] 0 0
r 26.362356784 _1_ RTR  --- 13 ack 40 [0 0 0 0] ------- [1:0 0:0 32 0] [0 0] 0 0
s 26.808066262 _0_ RTR  --- 14 message 44 [0 0 0 0] ------- [0:255 -1:255 32 0] 
r 26.809003019 _2_ RTR  --- 14 message 44 [0 ffffffff 0 800] ------- [0:255 -1:255 32 0] 
s 27.018709889 _2_ RTR  --- 15 message 44 [0 0 0 0] ------- [2:255 -1:255 32 0] 
r 27.019926645 _0_ RTR  --- 15 message 44 [0 ffffffff 2 800] ------- [2:255 -1:255 32 0] 
s 28.675088117 _1_ RTR  --- 16 message 44 [0 0 0 0] ------- [1:255 -1:255 32 0] 
r 28.676205035 _2_ RTR  --- 16 message 44 [0 ffffffff 1 800] ------- [1:255 -1:255 32 0] 
s 31.000000000 _0_ AGT  --- 17 tcp 40 [0 0 0 0] ------- [0:0 1:0 32 0] [0 0] 0 0
r 31.000000000 _0_ RTR  --- 17 tcp 40 [0 0 0 0] ------- [0:0 1:0 32 0] [0 0] 0 0
s 31.000000000 _0_ RTR  --- 17 tcp 60 [0 0 0 0] ------- [0:0 1:0 32 2] [0 0] 0 0
r 31.009991588 _2_ RTR  --- 17 tcp 60 [13a 2 0 800] ------- [0:0 1:0 32 2] [0 0] 1 0
f 31.009991588 _2_ RTR  --- 17 tcp 60 [13a 2 0 800] ------- [0:0 1:0 31 1] [0 0] 1 0
r 31.025189743 _1_ AGT  --- 17 tcp 60 [13a 1 2 800] ------- [0:0 1:0 31 1] [0 0] 2 0
s 31.025189743 _1_ AGT  --- 18 ack 40 [0 0 0 0] ------- [1:0 0:0 32 0] [0 0] 0 0
r 31.025189743 _1_ RTR  --- 18 ack 40 [0 0 0 0] ------- [1:0 0:0 32 0] [0 0] 0 0
s 40.954362937 _0_ RTR  --- 19 message 56 [0 0 0 0] ------- [0:255 -1:255 32 0] 
r 40.955675561 _2_ RTR  --- 19 message 56 [0 ffffffff 0 800] ------- [0:255 -1:255 32 0] 
s 41.931011511 _2_ RTR  --- 20 message 44 [0 0 0 0] ------- [2:255 -1:255 32 0] 
r 41.931968125 _0_ RTR  --- 20 message 44 [0 ffffffff 2 800] ------- [2:255 -1:255 32 0] 
r 41.931968211 _1_ RTR  --- 20 message 44 [0 ffffffff 2 800] ------- [2:255 -1:255 32 0] 
s 43.169566636 _1_ RTR  --- 21 message 32 [0 0 0 0] ------- [1:255 -1:255 32 0] 
r 43.170547785 _0_ RTR  --- 21 message 32 [0 ffffffff 1 800] ------- [1:255 -1:255 32 0] 
s 55.000000000 _0_ AGT  --- 22 tcp 40 [0 0 0 0] ------- [0:0 1:0 32 0] [0 0] 0 0
r 55.000000000 _0_ RTR  --- 22 tcp 40 [0 0 0 0] ------- [0:0 1:0 32 0] [0 0] 0 0
s 55.000000000 _0_ RTR  --- 22 tcp 60 [0 0 0 0] ------- [0:0 1:0 32 1] [0 0] 0 0
r 55.017632697 _1_ AGT  --- 22 tcp 60 [13a 1 0 800] ------- [0:0 1:0 32 1] [0 0] 1 0
s 55.017632697 _1_ AGT  --- 23 ack 40 [0 0 0 0] ------- [1:0 0:0 32 0] [0 0] 0 0
r 55.017632697 _1_ RTR  --- 23 ack 40 [0 0 0 0] ------- [1:0 0:0 32 0] [0 0] 0 0
s 55.142915895 _0_ RTR  --- 24 message 56 [0 0 0 0] ------- [0:255 -1:255 32 0] 
r 55.143948388 _2_ RTR  --- 24 message 56 [0 ffffffff 0 800] ------- [0:255 -1:255 32 0] 
r 55.143948774 _1_ RTR  --- 24 message 56 [0 ffffffff 0 800] ------- [0:255 -1:255 32 0] 
s 55.143948774 _1_ RTR  --- 13 ack 80 [0 0 0 0] ------- [1:0 0:0 32 0] [0 0] 0 0
s 55.143948774 _1_ RTR  --- 18 ack 80 [0 0 0 0] ------- [1:0 0:0 32 0] [0 0] 0 0
s 55.143948774 _1_ RTR  --- 23 ack 80 [0 0 0 0] ------- [1:0 0:0 32 0] [0 0] 0 0
r 55.147371410 _0_ AGT  --- 13 ack 80 [13a 0 1 800] ------- [1:0 0:0 32 0] [0 0] 1 0
s 55.147371410 _0_ AGT  --- 25 tcp 1040 [0 0 0 0] ------- [0:0 1:0 32 0] [1 0] 0 0
r 55.147371410 _0_ RTR  --- 25 tcp 1040 [0 0 0 0] ------- [0:0 1:0 32 0] [1 0] 0 0
s 55.147371410 _0_ RTR  --- 25 tcp 1060 [0 0 0 0] ------- [0:0 1:0 32 1] [1 0] 0 0
r 55.157418046 _1_ AGT  --- 25 tcp 1060 [13a 1 0 800] ------- [0:0 1:0 32 1] [1 0] 1 0
s 55.157418046 _1_ AGT  --- 26 ack 40 [0 0 0 0] ------- [1:0 0:0 32 0] [1 0] 0 0
r 55.157418046 _1_ RTR  --- 26 ack 40 [0 0 0 0] ------- [1:0 0:0 32 0] [1 0] 0 0
s 55.157418046 _1_ RTR  --- 26 ack 60 [0 0 0 0] ------- [1:0 0:0 32 0] [1 0] 0 0
r 55.218816189 _0_ AGT  --- 18 ack 80 [13a 0 1 800] ------- [1:0 0:0 32 0] [0 0] 1 0
s 55.218816189 _0_ AGT  --- 27 tcp 1040 [0 0 0 0] ------- [0:0 1:0 32 0] [2 0] 0 0
r 55.218816189 _0_ RTR  --- 27 tcp 1040 [0 0 0 0] ------- [0:0 1:0 32 0] [2 0] 0 0
s 55.218816189 _0_ RTR  --- 27 tcp 1060 [0 0 0 0] ------- [0:0 1:0 32 1] [2 0] 0 0
s 55.226494189 _2_ RTR  --- 28 message 32 [0 0 0 0] ------- [2:255 -1:255 32 0] 
r 55.232017696 _0_ AGT  --- 23 ack 80 [13a 0 1 800] ------- [1:0 0:0 32 0] [0 0] 1 0
s 55.232017696 _0_ AGT  --- 29 tcp 1040 [0 0 0 0] ------- [0:0 1:0 32 0] [3 0] 0 0
r 55.232017696 _0_ RTR  --- 29 tcp 1040 [0 0 0 0] ------- [0:0 1:0 32 0] [3 0] 0 0
s 55.232017696 _0_ RTR  --- 29 tcp 1060 [0 0 0 0] ------- [0:0 1:0 32 1] [3 0] 0 0
r 55.236968428 _1_ RTR  --- 28 message 32 [0 ffffffff 2 800] ------- [2:255 -1:255 32 0] 
r 55.236968433 _0_ RTR  --- 28 message 32 [0 ffffffff 2 800] ------- [2:255 -1:255 32 0] 
r 55.254844562 _0_ AGT  --- 26 ack 60 [13a 0 1 800] ------- [1:0 0:0 32 0] [1 0] 1 0
r 55.282032942 _1_ AGT  --- 27 tcp 1060 [13a 1 0 800] ------- [0:0 1:0 32 1] [2 0] 1 0
s 55.282032942 _1_ AGT  --- 30 ack 40 [0 0 0 0] ------- [1:0 0:0 32 0] [2 0] 0 0
r 55.282032942 _1_ RTR  --- 30 ack 40 [0 0 0 0] ------- [1:0 0:0 32 0] [2 0] 0 0
s 55.282032942 _1_ RTR  --- 30 ack 60 [0 0 0 0] ------- [1:0 0:0 32 0] [2 0] 0 0
r 55.301809319 _0_ AGT  --- 30 ack 60 [13a 0 1 800] ------- [1:0 0:0 32 0] [2 0] 1 0
s 55.301809319 _0_ AGT  --- 31 tcp 1040 [0 0 0 0] ------- [0:0 1:0 32 0] [4 0] 0 0
r 55.301809319 _0_ RTR  --- 31 tcp 1040 [0 0 0 0] ------- [0:0 1:0 32 0] [4 0] 0 0
s 55.301809319 _0_ RTR  --- 31 tcp 1060 [0 0 0 0] ------- [0:0 1:0 32 1] [4 0] 0 0
r 55.330343443 _1_ AGT  --- 29 tcp 1060 [13a 1 0 800] ------- [0:0 1:0 32 1] [3 0] 1 0
s 55.330343443 _1_ AGT  --- 32 ack 40 [0 0 0 0] ------- [1:0 0:0 32 0] [3 0] 0 0
r 55.330343443 _1_ RTR  --- 32 ack 40 [0 0 0 0] ------- [1:0 0:0 32 0] [3 0] 0 0
s 55.330343443 _1_ RTR  --- 32 ack 60 [0 0 0 0] ------- [1:0 0:0 32 0] [3 0] 0 0
r 55.340490941 _1_ AGT  --- 31 tcp 1060 [13a 1 0 800] ------- [0:0 1:0 32 1] [4 0] 1 0
s 55.340490941 _1_ AGT  --- 33 ack 40 [0 0 0 0] ------- [1:0 0:0 32 0] [4 0] 0 0
r 55.340490941 _1_ RTR  --- 33 ack 40 [0 0 0 0] ------- [1:0 0:0 32 0] [4 0] 0 0
s 55.340490941 _1_ RTR  --- 33 ack 60 [0 0 0 0] ------- [1:0 0:0 32 0] [4 0] 0 0
r 55.403189542 _0_ AGT  --- 32 ack 60 [13a 0 1 800] ------- [1:0 0:0 32 0] [3 0] 1 0
s 55.403189542 _0_ AGT  --- 34 tcp 1040 [0 0 0 0] ------- [0:0 1:0 32 0] [5 0] 0 0
r 55.403189542 _0_ RTR  --- 34 tcp 1040 [0 0 0 0] ------- [0:0 1:0 32 0] [5 0] 0 0
s 55.403189542 _0_ RTR  --- 34 tcp 1060 [0 0 0 0] ------- [0:0 1:0 32 1] [5 0] 0 0
r 55.407603034 _0_ AGT  --- 33 ack 60 [13a 0 1 800] ------- [1:0 0:0 32 0] [4 0] 1 0
s 55.407603034 _0_ AGT  --- 35 tcp 1040 [0 0 0 0] ------- [0:0 1:0 32 0] [6 0] 0 0
r 55.407603034 _0_ RTR  --- 35 tcp 1040 [0 0 0 0] ------- [0:0 1:0 32 0] [6 0] 0 0
s 55.407603034 _0_ RTR  --- 35 tcp 1060 [0 0 0 0] ------- [0:0 1:0 32 1] [6 0] 0 0
s 55.407603034 _0_ AGT  --- 36 tcp 1040 [0 0 0 0] ------- [0:0 1:0 32 0] [7 0] 0 0
r 55.407603034 _0_ RTR  --- 36 tcp 1040 [0 0 0 0] ------- [0:0 1:0 32 0] [7 0] 0 0
s 55.407603034 _0_ RTR  --- 36 tcp 1060 [0 0 0 0] ------- [0:0 1:0 32 1] [7 0] 0 0
D 55.448203269 _0_ RTR  CBK 34 tcp 1060 [13a 1 0 800] ------- [0:0 1:0 32 1] [5 0] 0 0
r 55.462180885 _1_ AGT  --- 35 tcp 1060 [13a 1 0 800] ------- [0:0 1:0 32 1] [6 0] 1 0
s 55.462180885 _1_ AGT  --- 37 ack 40 [0 0 0 0] ------- [1:0 0:0 32 0] [4 0] 0 0
r 55.462180885 _1_ RTR  --- 37 ack 40 [0 0 0 0] ------- [1:0 0:0 32 0] [4 0] 0 0
s 55.462180885 _1_ RTR  --- 37 ack 60 [0 0 0 0] ------- [1:0 0:0 32 0] [4 0] 0 0
r 55.488691857 _1_ AGT  --- 36 tcp 1060 [13a 1 0 800] ------- [0:0 1:0 32 1] [7 0] 1 0
s 55.488691857 _1_ AGT  --- 38 ack 40 [0 0 0 0] ------- [1:0 0:0 32 0] [4 0] 0 0
r 55.488691857 _1_ RTR  --- 38 ack 40 [0 0 0 0] ------- [1:0 0:0 32 0] [4 0] 0 0
s 55.488691857 _1_ RTR  --- 38 ack 60 [0 0 0 0] ------- [1:0 0:0 32 0] [4 0] 0 0
r 55.491438470 _0_ AGT  --- 37 ack 60 [13a 0 1 800] ------- [1:0 0:0 32 0] [4 0] 1 0
s 55.491438470 _0_ AGT  --- 39 tcp 1040 [0 0 0 0] ------- [0:0 1:0 32 0] [8 0] 0 0
r 55.491438470 _0_ RTR  --- 39 tcp 1040 [0 0 0 0] ------- [0:0 1:0 32 0] [8 0] 0 0
s 55.491438470 _0_ RTR  --- 39 tcp 1060 [0 0 0 0] ------- [0:0 1:0 32 1] [8 0] 0 0
r 55.509581695 _0_ AGT  --- 38 ack 60 [13a 0 1 800] ------- [1:0 0:0 32 0] [4 0] 1 0
s 55.509581695 _0_ AGT  --- 40 tcp 1040 [0 0 0 0] ------- [0:0 1:0 32 0] [9 0] 0 0
r 55.509581695 _0_ RTR  --- 40 tcp 1040 [0 0 0 0] ------- [0:0 1:0 32 0] [9 0] 0 0
s 55.509581695 _0_ RTR  --- 40 tcp 1060 [0 0 0 0] ------- [0:0 1:0 32 1] [9 0] 0 0
r 55.538669787 _1_ AGT  --- 39 tcp 1060 [13a 1 0 800] ------- [0:0 1:0 32 1] [8 0] 1 0
s 55.538669787 _1_ AGT  --- 41 ack 40 [0 0 0 0] ------- [1:0 0:0 32 0] [4 0] 0 0
r 55.538669787 _1_ RTR  --- 41 ack 40 [0 0 0 0] ------- [1:0 0:0 32 0] [4 0] 0 0
s 55.538669787 _1_ RTR  --- 41 ack 60 [0 0 0 0] ------- [1:0 0:0 32 0] [4 0] 0 0
r 55.621383433 _1_ AGT  --- 40 tcp 1060 [13a 1 0 800] ------- [0:0 1:0 32 1] [9 0] 1 0
s 55.621383433 _1_ AGT  --- 42 ack 40 [0 0 0 0] ------- [1:0 0:0 32 0] [4 0] 0 0
r 55.621383433 _1_ RTR  --- 42 ack 40 [0 0 0 0] ------- [1:0 0:0 32 0] [4 0] 0 0
s 55.621383433 _1_ RTR  --- 42 ack 60 [0 0 0 0] ------- [1:0 0:0 32 0] [4 0] 0 0
r 55.652131771 _0_ AGT  --- 41 ack 60 [13a 0 1 800] ------- [1:0 0:0 32 0] [4 0] 1 0
s 55.652131771 _0_ AGT  --- 43 tcp 1040 [0 0 0 0] ------- [0:0 1:0 32 0] [5 0] 0 0
r 55.652131771 _0_ RTR  --- 43 tcp 1040 [0 0 0 0] ------- [0:0 1:0 32 0] [5 0] 0 0
s 55.652131771 _0_ RTR  --- 43 tcp 1060 [0 0 0 0] ------- [0:0 1:0 32 1] [5 0] 0 0
r 55.663298374 _1_ AGT  --- 43 tcp 1060 [13a 1 0 800] ------- [0:0 1:0 32 1] [5 0] 1 0
s 55.663298374 _1_ AGT  --- 44 ack 40 [0 0 0 0] ------- [1:0 0:0 32 0] [9 0] 0 0
r 55.663298374 _1_ RTR  --- 44 ack 40 [0 0 0 0] ------- [1:0 0:0 32 0] [9 0] 0 0
s 55.663298374 _1_ RTR  --- 44 ack 60 [0 0 0 0] ------- [1:0 0:0 32 0] [9 0] 0 0
s 55.668983855 _1_ RTR  --- 45 message 44 [0 0 0 0] ------- [1:255 -1:255 32 0] 
r 55.733188048 _2_ RTR  --- 45 message 44 [0 ffffffff 1 800] ------- [1:255 -1:255 32 0] 
r 55.733188435 _0_ RTR  --- 45 message 44 [0 ffffffff 1 800] ------- [1:255 -1:255 32 0] 
r 55.735080167 _0_ AGT  --- 42 ack 60 [13a 0 1 800] ------- [1:0 0:0 32 0] [4 0] 1 0
r 55.740999092 _0_ AGT  --- 44 ack 60 [13a 0 1 800] ------- [1:0 0:0 32 0] [9 0] 1 0
s 55.740999092 _0_ AGT  --- 46 tcp 1040 [0 0 0 0] ------- [0:0 1:0 32 0] [10 0] 0 0
r 55.740999092 _0_ RTR  --- 46 tcp 1040 [0 0 0 0] ------- [0:0 1:0 32 0] [10 0] 0 0
s 55.740999092 _0_ RTR  --- 46 tcp 1060 [0 0 0 0] ------- [0:0 1:0 32 1] [10 0] 0 0
s 55.740999092 _0_ AGT  --- 47 tcp 1040 [0 0 0 0] ------- [0:0 1:0 32 0] [11 0] 0 0
r 55.740999092 _0_ RTR  --- 47 tcp 1040 [0 0 0 0] ------- [0:0 1:0 32 0] [11 0] 0 0
s 55.740999092 _0_ RTR  --- 47 tcp 1060 [0 0 0 0] ------- [0:0 1:0 32 1] [11 0] 0 0
r 55.798282608 _1_ AGT  --- 46 tcp 1060 [13a 1 0 800] ------- [0:0 1:0 32 1] [10 0] 1 0
s 55.798282608 _1_ AGT  --- 48 ack 40 [0 0 0 0] ------- [1:0 0:0 32 0] [10 0] 0 0
r 55.798282608 _1_ RTR  --- 48 ack 40 [0 0 0 0] ------- [1:0 0:0 32 0] [10 0] 0 0
s 55.798282608 _1_ RTR  --- 48 ack 60 [0 0 0 0] ------- [1:0 0:0 32 0] [10 0] 0 0
r 55.881562741 _0_ AGT  --- 48 ack 60 [13a 0 1 800] ------- [1:0 0:0 32 0] [10 0] 1 0
s 55.881562741 _0_ AGT  --- 49 tcp 1040 [0 0 0 0] ------- [0:0 1:0 32 0] [12 0] 0 0
r 55.881562741 _0_ RTR  --- 49 tcp 1040 [0 0 0 0] ------- [0:0 1:0 32 0] [12 0] 0 0
s 55.881562741 _0_ RTR  --- 49 tcp 1060 [0 0 0 0] ------- [0:0 1:0 32 1] [12 0] 0 0
s 55.881562741 _0_ AGT  --- 50 tcp 1040 [0 0 0 0] ------- [0:0 1:0 32 0] [13 0] 0 0
r 55.881562741 _0_ RTR  --- 50 tcp 1040 [0 0 0 0] ------- [0:0 1:0 32 0] [13 0] 0 0
s 55.881562741 _0_ RTR  --- 50 tcp 1060 [0 0 0 0] ------- [0:0 1:0 32 1] [13 0] 0 0
D 55.897621466 _0_ RTR  CBK 46 tcp 1060 [13a 1 0 800] ------- [0:0 1:0 32 1] [10 0] 0 0
r 55.925160776 _1_ AGT  --- 47 tcp 1060 [13a 1 0 800] ------- [0:0 1:0 32 1] [11 0] 1 0
s 55.925160776 _1_ AGT  --- 51 ack 40 [0 0 0 0] ------- [1:0 0:0 32 0] [11 0] 0 0
r 55.925160776 _1_ RTR  --- 51 ack 40 [0 0 0 0] ------- [1:0 0:0 32 0] [11 0] 0 0
s 55.925160776 _1_ RTR  --- 51 ack 60 [0 0 0 0] ------- [1:0 0:0 32 0] [11 0] 0 0
r 55.945370805 _0_ AGT  --- 51 ack 60 [13a 0 1 800] ------- [1:0 0:0 32 0] [11 0] 1 0
s 55.945370805 _0_ AGT  --- 52 tcp 1040 [0 0 0 0] ------- [0:0 1:0 32 0] [14 0] 0 0
r 55.945370805 _0_ RTR  --- 52 tcp 1040 [0 0 0 0] ------- [0:0 1:0 32 0] [14 0] 0 0
s 55.945370805 _0_ RTR  --- 52 tcp 1060 [0 0 0 0] ------- [0:0 1:0 32 1] [14 0] 0 0
r 56.023949148 _1_ AGT  --- 49 tcp 1060 [13a 1 0 800] ------- [0:0 1:0 32 1] [12 0] 1 0
s 56.023949148 _1_ AGT  --- 53 ack 40 [0 0 0 0] ------- [1:0 0:0 32 0] [12 0] 0 0
r 56.023949148 _1_ RTR  --- 53 ack 40 [0 0 0 0] ------- [1:0 0:0 32 0] [12 0] 0 0
s 56.023949148 _1_ RTR  --- 53 ack 60 [0 0 0 0] ------- [1:0 0:0 32 0] [12 0] 0 0
D 56.032787867 _1_ RTR  CBK 51 ack 60 [13a 0 1 800] ------- [1:0 0:0 32 0] [11 0] 0 0
r 56.036287163 _0_ AGT  --- 53 ack 60 [13a 0 1 800] ------- [1:0 0:0 32 0] [12 0] 1 0
s 56.036287163 _0_ AGT  --- 54 tcp 1040 [0 0 0 0] ------- [0:0 1:0 32 0] [15 0] 0 0
r 56.036287163 _0_ RTR  --- 54 tcp 1040 [0 0 0 0] ------- [0:0 1:0 32 0] [15 0] 0 0
s 56.036287163 _0_ RTR  --- 54 tcp 1060 [0 0 0 0] ------- [0:0 1:0 32 1] [15 0] 0 0
D 56.095580749 _0_ RTR  CBK 49 tcp 1060 [13a 1 0 800] ------- [0:0 1:0 32 1] [12 0] 0 0
r 56.106140039 _1_ AGT  --- 50 tcp 1060 [13a 1 0 800] ------- [0:0 1:0 32 1] [13 0] 1 0
s 56.106140039 _1_ AGT  --- 55 ack 40 [0 0 0 0] ------- [1:0 0:0 32 0] [13 0] 0 0
r 56.106140039 _1_ RTR  --- 55 ack 40 [0 0 0 0] ------- [1:0 0:0 32 0] [13 0] 0 0
s 56.106140039 _1_ RTR  --- 55 ack 60 [0 0 0 0] ------- [1:0 0:0 32 0] [13 0] 0 0
r 56.116367469 _1_ AGT  --- 52 tcp 1060 [13a 1 0 800] ------- [0:0 1:0 32 1] [14 0] 1 0
s 56.116367469 _1_ AGT  --- 56 ack 40 [0 0 0 0] ------- [1:0 0:0 32 0] [14 0] 0 0
r 56.116367469 _1_ RTR  --- 56 ack 40 [0 0 0 0] ------- [1:0 0:0 32 0] [14 0] 0 0
s 56.116367469 _1_ RTR  --- 56 ack 60 [0 0 0 0] ------- [1:0 0:0 32 0] [14 0] 0 0
r 56.138176612 _1_ AGT  --- 54 tcp 1060 [13a 1 0 800] ------- [0:0 1:0 32 1] [15 0] 1 0
s 56.138176612 _1_ AGT  --- 57 ack 40 [0 0 0 0] ------- [1:0 0:0 32 0] [15 0] 0 0
r 56.138176612 _1_ RTR  --- 57 ack 40 [0 0 0 0] ------- [1:0 0:0 32 0] [15 0] 0 0
s 56.138176612 _1_ RTR  --- 57 ack 60 [0 0 0 0] ------- [1:0 0:0 32 0] [15 0] 0 0
r 56.196953168 _0_ AGT  --- 55 ack 60 [13a 0 1 800] ------- [1:0 0:0 32 0] [13 0] 1 0
s 56.196953168 _0_ AGT  --- 58 tcp 1040 [0 0 0 0] ------- [0:0 1:0 32 0] [16 0] 0 0
r 56.196953168 _0_ RTR  --- 58 tcp 1040 [0 0 0 0] ------- [0:0 1:0 32 0] [16 0] 0 0
s 56.196953168 _0_ RTR  --- 58 tcp 1060 [0 0 0 0] ------- [0:0 1:0 32 1] [16 0] 0 0
r 56.203312013 _0_ AGT  --- 56 ack 60 [13a 0 1 800] ------- [1:0 0:0 32 0] [14 0] 1 0
s 56.203312013 _0_ AGT  --- 59 tcp 1040 [0 0 0 0] ------- [0:0 1:0 32 0] [17 0] 0 0
r 56.203312013 _0_ RTR  --- 59 tcp 1040 [0 0 0 0] ------- [0:0 1:0 32 0] [17 0] 0 0
s 56.203312013 _0_ RTR  --- 59 tcp 1060 [0 0 0 0] ------- [0:0 1:0 32 1] [17 0] 0 0
s 56.203312013 _0_ AGT  --- 60 tcp 1040 [0 0 0 0] ------- [0:0 1:0 32 0] [18 0] 0 0
r 56.203312013 _0_ RTR  --- 60 tcp 1040 [0 0 0 0] ------- [0:0 1:0 32 0] [18 0] 0 0
s 56.203312013 _0_ RTR  --- 60 tcp 1060 [0 0 0 0] ------- [0:0 1:0 32 1] [18 0] 0 0
r 56.242856563 _0_ AGT  --- 57 ack 60 [13a 0 1 800] ------- [1:0 0:0 32 0] [15 0] 1 0
s 56.242856563 _0_ AGT  --- 61 tcp 1040 [0 0 0 0] ------- [0:0 1:0 32 0] [19 0] 0 0
r 56.242856563 _0_ RTR  --- 61 tcp 1040 [0 0 0 0] ------- [0:0 1:0 32 0] [19 0] 0 0
s 56.242856563 _0_ RTR  --- 61 tcp 1060 [0 0 0 0] ------- [0:0 1:0 32 1] [19 0] 0 0
D 56.252985563 _0_ RTR  CBK 54 tcp 1060 [13a 1 0 800] ------- [0:0 1:0 32 1] [15 0] 0 0
r 56.275484835 _1_ AGT  --- 58 tcp 1060 [13a 1 0 800] ------- [0:0 1:0 32 1] [16 0] 1 0
s 56.275484835 _1_ AGT  --- 62 ack 40 [0 0 0 0] ------- [1:0 0:0 32 0] [16 0] 0 0
r 56.275484835 _1_ RTR  --- 62 ack 40 [0 0 0 0] ------- [1:0 0:0 32 0] [16 0] 0 0
s 56.275484835 _1_ RTR  --- 62 ack 60 [0 0 0 0] ------- [1:0 0:0 32 0] [16 0] 0 0
r 56.296624518 _0_ AGT  --- 62 ack 60 [13a 0 1 800] ------- [1:0 0:0 32 0] [16 0] 1 0
s 56.296624518 _0_ AGT  --- 63 tcp 1040 [0 0 0 0] ------- [0:0 1:0 32 0] [20 0] 0 0
r 56.296624518 _0_ RTR  --- 63 tcp 1040 [0 0 0 0] ------- [0:0 1:0 32 0] [20 0] 0 0
s 56.296624518 _0_ RTR  --- 63 tcp 1060 [0 0 0 0] ------- [0:0 1:0 32 1] [20 0] 0 0
r 56.364060780 _1_ AGT  --- 59 tcp 1060 [13a 1 0 800] ------- [0:0 1:0 32 1] [17 0] 1 0
s 56.364060780 _1_ AGT  --- 64 ack 40 [0 0 0 0] ------- [1:0 0:0 32 0] [17 0] 0 0
r 56.364060780 _1_ RTR  --- 64 ack 40 [0 0 0 0] ------- [1:0 0:0 32 0] [17 0] 0 0
s 56.364060780 _1_ RTR  --- 64 ack 60 [0 0 0 0] ------- [1:0 0:0 32 0] [17 0] 0 0
r 56.366267336 _0_ AGT  --- 64 ack 60 [13a 0 1 800] ------- [1:0 0:0 32 0] [17 0] 1 0
s 56.366267336 _0_ AGT  --- 65 tcp 1040 [0 0 0 0] ------- [0:0 1:0 32 0] [21 0] 0 0
r 56.366267336 _0_ RTR  --- 65 tcp 1040 [0 0 0 0] ------- [0:0 1:0 32 0] [21 0] 0 0
s 56.366267336 _0_ RTR  --- 65 tcp 1060 [0 0 0 0] ------- [0:0 1:0 32 1] [21 0] 0 0
r 56.400945298 _1_ AGT  --- 60 tcp 1060 [13a 1 0 800] ------- [0:0 1:0 32 1] [18 0] 1 0
s 56.400945298 _1_ AGT  --- 66 ack 40 [0 0 0 0] ------- [1:0 0:0 32 0] [18 0] 0 0
r 56.400945298 _1_ RTR  --- 66 ack 40 [0 0 0 0] ------- [1:0 0:0 32 0] [18 0] 0 0
s 56.400945298 _1_ RTR  --- 66 ack 60 [0 0 0 0] ------- [1:0 0:0 32 0] [18 0] 0 0
r 56.404099554 _0_ AGT  --- 66 ack 60 [13a 0 1 800] ------- [1:0 0:0 32 0] [18 0] 1 0
s 56.404099554 _0_ AGT  --- 67 tcp 1040 [0 0 0 0] ------- [0:0 1:0 32 0] [22 0] 0 0
r 56.404099554 _0_ RTR  --- 67 tcp 1040 [0 0 0 0] ------- [0:0 1:0 32 0] [22 0] 0 0
s 56.404099554 _0_ RTR  --- 67 tcp 1060 [0 0 0 0] ------- [0:0 1:0 32 1] [22 0] 0 0
s 56.404099554 _0_ AGT  --- 68 tcp 1040 [0 0 0 0] ------- [0:0 1:0 32 0] [23 0] 0 0
r 56.404099554 _0_ RTR  --- 68 tcp 1040 [0 0 0 0] ------- [0:0 1:0 32 0] [23 0] 0 0
s 56.404099554 _0_ RTR  --- 68 tcp 1060 [0 0 0 0] ------- [0:0 1:0 32 1] [23 0] 0 0
r 56.437587808 _1_ AGT  --- 61 tcp 1060 [13a 1 0 800] ------- [0:0 1:0 32 1] [19 0] 1 0
s 56.437587808 _1_ AGT  --- 69 ack 40 [0 0 0 0] ------- [1:0 0:0 32 0] [19 0] 0 0
r 56.437587808 _1_ RTR  --- 69 ack 40 [0 0 0 0] ------- [1:0 0:0 32 0] [19 0] 0 0
s 56.437587808 _1_ RTR  --- 69 ack 60 [0 0 0 0] ------- [1:0 0:0 32 0] [19 0] 0 0
r 56.441356060 _0_ AGT  --- 69 ack 60 [13a 0 1 800] ------- [1:0 0:0 32 0] [19 0] 1 0
s 56.441356060 _0_ AGT  --- 70 tcp 1040 [0 0 0 0] ------- [0:0 1:0 32 0] [24 0] 0 0
r 56.441356060 _0_ RTR  --- 70 tcp 1040 [0 0 0 0] ------- [0:0 1:0 32 0] [24 0] 0 0
s 56.441356060 _0_ RTR  --- 70 tcp 1060 [0 0 0 0] ------- [0:0 1:0 32 1] [24 0] 0 0
r 56.472661410 _1_ AGT  --- 63 tcp 1060 [13a 1 0 800] ------- [0:0 1:0 32 1] [20 0] 1 0
s 56.472661410 _1_ AGT  --- 71 ack 40 [0 0 0 0] ------- [1:0 0:0 32 0] [20 0] 0 0
r 56.472661410 _1_ RTR  --- 71 ack 40 [0 0 0 0] ------- [1:0 0:0 32 0] [20 0] 0 0
s 56.472661410 _1_ RTR  --- 71 ack 60 [0 0 0 0] ------- [1:0 0:0 32 0] [20 0] 0 0
D 56.512249753 _0_ RTR  CBK 63 tcp 1060 [13a 1 0 800] ------- [0:0 1:0 32 1] [20 0] 0 0
r 56.514104148 _0_ AGT  --- 71 ack 60 [13a 0 1 800] ------- [1:0 0:0 32 0] [20 0] 1 0
s 56.514104148 _0_ AGT  --- 72 tcp 1040 [0 0 0 0] ------- [0:0 1:0 32 0] [25 0] 0 0
r 56.514104148 _0_ RTR  --- 72 tcp 1040 [0 0 0 0] ------- [0:0 1:0 32 0] [25 0] 0 0
s 56.514104148 _0_ RTR  --- 72 tcp 1060 [0 0 0 0] ------- [0:0 1:0 32 1] [25 0] 0 0
r 56.566743783 _1_ AGT  --- 65 tcp 1060 [13a 1 0 800] ------- [0:0 1:0 32 1] [21 0] 1 0
s 56.566743783 _1_ AGT  --- 73 ack 40 [0 0 0 0] ------- [1:0 0:0 32 0] [21 0] 0 0
r 56.566743783 _1_ RTR  --- 73 ack 40 [0 0 0 0] ------- [1:0 0:0 32 0] [21 0] 0 0
s 56.566743783 _1_ RTR  --- 73 ack 60 [0 0 0 0] ------- [1:0 0:0 32 0] [21 0] 0 0
r 56.568990325 _0_ AGT  --- 73 ack 60 [13a 0 1 800] ------- [1:0 0:0 32 0] [21 0] 1 0
s 56.568990325 _0_ AGT  --- 74 tcp 1040 [0 0 0 0] ------- [0:0 1:0 32 0] [26 0] 0 0
r 56.568990325 _0_ RTR  --- 74 tcp 1040 [0 0 0 0] ------- [0:0 1:0 32 0] [26 0] 0 0
s 56.568990325 _0_ RTR  --- 74 tcp 1060 [0 0 0 0] ------- [0:0 1:0 32 1] [26 0] 0 0
r 56.596564256 _1_ AGT  --- 67 tcp 1060 [13a 1 0 800] ------- [0:0 1:0 32 1] [22 0] 1 0
s 56.596564256 _1_ AGT  --- 75 ack 40 [0 0 0 0] ------- [1:0 0:0 32 0] [22 0] 0 0
r 56.596564256 _1_ RTR  --- 75 ack 40 [0 0 0 0] ------- [1:0 0:0 32 0] [22 0] 0 0
s 56.596564256 _1_ RTR  --- 75 ack 60 [0 0 0 0] ------- [1:0 0:0 32 0] [22 0] 0 0
r 56.637448110 _1_ AGT  --- 68 tcp 1060 [13a 1 0 800] ------- [0:0 1:0 32 1] [23 0] 1 0
s 56.637448110 _1_ AGT  --- 76 ack 40 [0 0 0 0] ------- [1:0 0:0 32 0] [23 0] 0 0
r 56.637448110 _1_ RTR  --- 76 ack 40 [0 0 0 0] ------- [1:0 0:0 32 0] [23 0] 0 0
s 56.637448110 _1_ RTR  --- 76 ack 60 [0 0 0 0] ------- [1:0 0:0 32 0] [23 0] 0 0
r 56.688082565 _1_ AGT  --- 70 tcp 1060 [13a 1 0 800] ------- [0:0 1:0 32 1] [24 0] 1 0
s 56.688082565 _1_ AGT  --- 77 ack 40 [0 0 0 0] ------- [1:0 0:0 32 0] [24 0] 0 0
r 56.688082565 _1_ RTR  --- 77 ack 40 [0 0 0 0] ------- [1:0 0:0 32 0] [24 0] 0 0
s 56.688082565 _1_ RTR  --- 77 ack 60 [0 0 0 0] ------- [1:0 0:0 32 0] [24 0] 0 0
r 56.698269944 _1_ AGT  --- 72 tcp 1060 [13a 1 0 800] ------- [0:0 1:0 32 1] [25 0] 1 0
s 56.698269944 _1_ AGT  --- 78 ack 40 [0 0 0 0] ------- [1:0 0:0 32 0] [25 0] 0 0
r 56.698269944 _1_ RTR  --- 78 ack 40 [0 0 0 0] ------- [1:0 0:0 32 0] [25 0] 0 0
s 56.698269944 _1_ RTR  --- 78 ack 60 [0 0 0 0] ------- [1:0 0:0 32 0] [25 0] 0 0
r 56.725368701 _1_ AGT  --- 74 tcp 1060 [13a 1 0 800] ------- [0:0 1:0 32 1] [26 0] 1 0
s 56.725368701 _1_ AGT  --- 79 ack 40 [0 0 0 0] ------- [1:0 0:0 32 0] [26 0] 0 0
r 56.725368701 _1_ RTR  --- 79 ack 40 [0 0 0 0] ------- [1:0 0:0 32 0] [26 0] 0 0
s 56.725368701 _1_ RTR  --- 79 ack 60 [0 0 0 0] ------- [1:0 0:0 32 0] [26 0] 0 0
r 56.744515232 _0_ AGT  --- 75 ack 60 [13a 0 1 800] ------- [1:0 0:0 32 0] [22 0] 1 0
s 56.744515232 _0_ AGT  --- 80 tcp 1040 [0 0 0 0] ------- [0:0 1:0 32 0] [27 0] 0 0
r 56.744515232 _0_ RTR  --- 80 tcp 1040 [0 0 0 0] ------- [0:0 1:0 32 0] [27 0] 0 0
s 56.744515232 _0_ RTR  --- 80 tcp 1060 [0 0 0 0] ------- [0:0 1:0 32 1] [27 0] 0 0
r 56.756737451 _1_ AGT  --- 80 tcp 1060 [13a 1 0 800] ------- [0:0 1:0 32 1] [27 0] 1 0
s 56.756737451 _1_ AGT  --- 81 ack 40 [0 0 0 0] ------- [1:0 0:0 32 0] [27 0] 0 0
r 56.756737451 _1_ RTR  --- 81 ack 40 [0 0 0 0] ------- [1:0 0:0 32 0] [27 0] 0 0
s 56.756737451 _1_ RTR  --- 81 ack 60 [0 0 0 0] ------- [1:0 0:0 32 0] [27 0] 0 0
r 56.759243981 _0_ AGT  --- 76 ack 60 [13a 0 1 800] ------- [1:0 0:0 32 0] [23 0] 1 0
s 56.759243981 _0_ AGT  --- 82 tcp 1040 [0 0 0 0] ------- [0:0 1:0 32 0] [28 0] 0 0
r 56.759243981 _0_ RTR  --- 82 tcp 1040 [0 0 0 0] ------- [0:0 1:0 32 0] [28 0] 0 0
s 56.759243981 _0_ RTR  --- 82 tcp 1060 [0 0 0 0] ------- [0:0 1:0 32 1] [28 0] 0 0
r 56.769410511 _1_ AGT  --- 82 tcp 1060 [13a 1 0 800] ------- [0:0 1:0 32 1] [28 0] 1 0
s 56.769410511 _1_ AGT  --- 83 ack 40 [0 0 0 0] ------- [1:0 0:0 32 0] [28 0] 0 0
r 56.769410511 _1_ RTR  --- 83 ack 40 [0 0 0 0] ------- [1:0 0:0 32 0] [28 0] 0 0
s 56.769410511 _1_ RTR  --- 83 ack 60 [0 0 0 0] ------- [1:0 0:0 32 0] [28 0] 0 0
r 56.771437041 _0_ AGT  --- 77 ack 60 [13a 0 1 800] ------- [1:0 0:0 32 0] [24 0] 1 0
s 56.771437041 _0_ AGT  --- 84 tcp 1040 [0 0 0 0] ------- [0:0 1:0 32 0] [29 0] 0 0
r 56.771437041 _0_ RTR  --- 84 tcp 1040 [0 0 0 0] ------- [0:0 1:0 32 0] [29 0] 0 0
s 56.771437041 _0_ RTR  --- 84 tcp 1060 [0 0 0 0] ------- [0:0 1:0 32 1] [29 0] 0 0
s 56.771437041 _0_ AGT  --- 85 tcp 1040 [0 0 0 0] ------- [0:0 1:0 32 0] [30 0] 0 0
r 56.771437041 _0_ RTR  --- 85 tcp 1040 [0 0 0 0] ------- [0:0 1:0 32 0] [30 0] 0 0
s 56.771437041 _0_ RTR  --- 85 tcp 1060 [0 0 0 0] ------- [0:0 1:0 32 1] [30 0] 0 0
r 56.799172526 _0_ AGT  --- 78 ack 60 [13a 0 1 800] ------- [1:0 0:0 32 0] [25 0] 1 0
s 56.799172526 _0_ AGT  --- 86 tcp 1040 [0 0 0 0] ------- [0:0 1:0 32 0] [31 0] 0 0
r 56.799172526 _0_ RTR  --- 86 tcp 1040 [0 0 0 0] ------- [0:0 1:0 32 0] [31 0] 0 0
s 56.799172526 _0_ RTR  --- 86 tcp 1060 [0 0 0 0] ------- [0:0 1:0 32 1] [31 0] 0 0
r 56.814635265 _0_ AGT  --- 79 ack 60 [13a 0 1 800] ------- [1:0 0:0 32 0] [26 0] 1 0
s 56.814635265 _0_ AGT  --- 87 tcp 1040 [0 0 0 0] ------- [0:0 1:0 32 0] [32 0] 0 0
r 56.814635265 _0_ RTR  --- 87 tcp 1040 [0 0 0 0] ------- [0:0 1:0 32 0] [32 0] 0 0
s 56.814635265 _0_ RTR  --- 87 tcp 1060 [0 0 0 0] ------- [0:0 1:0 32 1] [32 0] 0 0
r 56.818062634 _0_ AGT  --- 81 ack 60 [13a 0 1 800] ------- [1:0 0:0 32 0] [27 0] 1 0
s 56.818062634 _0_ AGT  --- 88 tcp 1040 [0 0 0 0] ------- [0:0 1:0 32 0] [33 0] 0 0
r 56.818062634 _0_ RTR  --- 88 tcp 1040 [0 0 0 0] ------- [0:0 1:0 32 0] [33 0] 0 0
s 56.818062634 _0_ RTR  --- 88 tcp 1060 [0 0 0 0] ------- [0:0 1:0 32 1] [33 0] 0 0
r 56.860197894 _1_ AGT  --- 84 tcp 1060 [13a 1 0 800] ------- [0:0 1:0 32 1] [29 0] 1 0
s 56.860197894 _1_ AGT  --- 89 ack 40 [0 0 0 0] ------- [1:0 0:0 32 0] [29 0] 0 0
r 56.860197894 _1_ RTR  --- 89 ack 40 [0 0 0 0] ------- [1:0 0:0 32 0] [29 0] 0 0
s 56.860197894 _1_ RTR  --- 89 ack 60 [0 0 0 0] ------- [1:0 0:0 32 0] [29 0] 0 0
r 56.872025259 _1_ AGT  --- 85 tcp 1060 [13a 1 0 800] ------- [0:0 1:0 32 1] [30 0] 1 0
s 56.872025259 _1_ AGT  --- 90 ack 40 [0 0 0 0] ------- [1:0 0:0 32 0] [30 0] 0 0
r 56.872025259 _1_ RTR  --- 90 ack 40 [0 0 0 0] ------- [1:0 0:0 32 0] [30 0] 0 0
s 56.872025259 _1_ RTR  --- 90 ack 60 [0 0 0 0] ------- [1:0 0:0 32 0] [30 0] 0 0
r 56.918882823 _0_ AGT  --- 83 ack 60 [13a 0 1 800] ------- [1:0 0:0 32 0] [28 0] 1 0
s 56.918882823 _0_ AGT  --- 91 tcp 1040 [0 0 0 0] ------- [0:0 1:0 32 0] [34 0] 0 0
r 56.918882823 _0_ RTR  --- 91 tcp 1040 [0 0 0 0] ------- [0:0 1:0 32 0] [34 0] 0 0
s 56.918882823 _0_ RTR  --- 91 tcp 1060 [0 0 0 0] ------- [0:0 1:0 32 1] [34 0] 0 0
r 56.923550183 _0_ AGT  --- 89 ack 60 [13a 0 1 800] ------- [1:0 0:0 32 0] [29 0] 1 0
s 56.923550183 _0_ AGT  --- 92 tcp 1040 [0 0 0 0] ------- [0:0 1:0 32 0] [35 0] 0 0
r 56.923550183 _0_ RTR  --- 92 tcp 1040 [0 0 0 0] ------- [0:0 1:0 32 0] [35 0] 0 0
s 56.923550183 _0_ RTR  --- 92 tcp 1060 [0 0 0 0] ------- [0:0 1:0 32 1] [35 0] 0 0
r 56.926077543 _0_ AGT  --- 90 ack 60 [13a 0 1 800] ------- [1:0 0:0 32 0] [30 0] 1 0
s 56.926077543 _0_ AGT  --- 93 tcp 1040 [0 0 0 0] ------- [0:0 1:0 32 0] [36 0] 0 0
r 56.926077543 _0_ RTR  --- 93 tcp 1040 [0 0 0 0] ------- [0:0 1:0 32 0] [36 0] 0 0
s 56.926077543 _0_ RTR  --- 93 tcp 1060 [0 0 0 0] ------- [0:0 1:0 32 1] [36 0] 0 0
s 56.926077543 _0_ AGT  --- 94 tcp 1040 [0 0 0 0] ------- [0:0 1:0 32 0] [37 0] 0 0
r 56.926077543 _0_ RTR  --- 94 tcp 1040 [0 0 0 0] ------- [0:0 1:0 32 0] [37 0] 0 0
s 56.926077543 _0_ RTR  --- 94 tcp 1060 [0 0 0 0] ------- [0:0 1:0 32 1] [37 0] 0 0
r 56.981685096 _1_ AGT  --- 86 tcp 1060 [13a 1 0 800] ------- [0:0 1:0 32 1] [31 0] 1 0
s 56.981685096 _1_ AGT  --- 95 ack 40 [0 0 0 0] ------- [1:0 0:0 32 0] [31 0] 0 0
r 56.981685096 _1_ RTR  --- 95 ack 40 [0 0 0 0] ------- [1:0 0:0 32 0] [31 0] 0 0
s 56.981685096 _1_ RTR  --- 95 ack 60 [0 0 0 0] ------- [1:0 0:0 32 0] [31 0] 0 0
r 56.985273289 _0_ AGT  --- 95 ack 60 [13a 0 1 800] ------- [1:0 0:0 32 0] [31 0] 1 0
s 56.985273289 _0_ AGT  --- 96 tcp 1040 [0 0 0 0] ------- [0:0 1:0 32 0] [38 0] 0 0
r 56.985273289 _0_ RTR  --- 96 tcp 1040 [0 0 0 0] ------- [0:0 1:0 32 0] [38 0] 0 0
s 56.985273289 _0_ RTR  --- 96 tcp 1060 [0 0 0 0] ------- [0:0 1:0 32 1] [38 0] 0 0
r 57.020750185 _1_ AGT  --- 87 tcp 1060 [13a 1 0 800] ------- [0:0 1:0 32 1] [32 0] 1 0
s 57.020750185 _1_ AGT  --- 97 ack 40 [0 0 0 0] ------- [1:0 0:0 32 0] [32 0] 0 0
r 57.020750185 _1_ RTR  --- 97 ack 40 [0 0 0 0] ------- [1:0 0:0 32 0] [32 0] 0 0