n -t * -s 0  -x 5 -y 0 -Z 0 -z 30  -v circle -c black
n -t * -s 1  -x 50 -y 0 -Z 0 -z 30  -v circle -c black
V -t * -v 1.0a5 -a 0
W -t * -x 500 -y 400
A -t * -n 1 -p 0 -o 0xffffffff -c 31 -a 1
A -t * -h 1 -m 2147483647 -s 0
+ -t 0.029290548 -s 1 -d -1 -p message -e 32 -c 2 -a 0 -i 0 -k RTR 
- -t 0.029290548 -s 1 -d -1 -p message -e 32 -c 2 -a 0 -i 0 -k RTR
h -t 0.029290548 -s 1 -d -1 -p message -e 32 -c 2 -a 0 -i 0 -k RTR
r -t 0.030110698 -s 0 -d -1 -p message -e 32 -c 2 -a 0 -i 0 -k RTR
+ -t 1.119926192 -s 0 -d -1 -p message -e 32 -c 2 -a 0 -i 1 -k RTR 
- -t 1.119926192 -s 0 -d -1 -p message -e 32 -c 2 -a 0 -i 1 -k RTR
h -t 1.119926192 -s 0 -d -1 -p message -e 32 -c 2 -a 0 -i 1 -k RTR
r -t 1.121106342 -s 1 -d -1 -p message -e 32 -c 2 -a 0 -i 1 -k RTR
n -t 10.000000 -s 0 -x 5.000000 -y 0.000000 -U 2.099786 -V 2.142639 -T 116.678571
+ -t 10.000000000 -s 0 -d -1 -p tcp -e 40 -c 2 -a 0 -i 2 -k AGT 
- -t 10.000000000 -s 0 -d -1 -p tcp -e 40 -c 2 -a 0 -i 2 -k AGT
h -t 10.000000000 -s 0 -d -1 -p tcp -e 40 -c 2 -a 0 -i 2 -k AGT
+ -t 10.000000000 -s 0 -d 1 -p tcp -e 60 -c 2 -a 0 -i 2 -k RTR 
- -t 10.000000000 -s 0 -d 1 -p tcp -e 60 -c 2 -a 0 -i 2 -k RTR
h -t 10.000000000 -s 0 -d 1 -p tcp -e 60 -c 2 -a 0 -i 2 -k RTR
r -t 10.005112050 -s 1 -d 1 -p tcp -e 60 -c 2 -a 0 -i 2 -k AGT
+ -t 10.005112050 -s 1 -d -1 -p ack -e 40 -c 2 -a 0 -i 3 -k AGT 
- -t 10.005112050 -s 1 -d -1 -p ack -e 40 -c 2 -a 0 -i 3 -k AGT
h -t 10.005112050 -s 1 -d -1 -p ack -e 40 -c 2 -a 0 -i 3 -k AGT
+ -t 10.005112050 -s 1 -d 0 -p ack -e 60 -c 2 -a 0 -i 3 -k RTR 
- -t 10.005112050 -s 1 -d 0 -p ack -e 60 -c 2 -a 0 -i 3 -k RTR
h -t 10.005112050 -s 1 -d 0 -p ack -e 60 -c 2 -a 0 -i 3 -k RTR
r -t 10.009665100 -s 0 -d 0 -p ack -e 60 -c 2 -a 0 -i 3 -k AGT
+ -t 10.009665100 -s 0 -d -1 -p tcp -e 1040 -c 2 -a 0 -i 4 -k AGT 
- -t 10.009665100 -s 0 -d -1 -p tcp -e 1040 -c 2 -a 0 -i 4 -k AGT
h -t 10.009665100 -s 0 -d -1 -p tcp -e 1040 -c 2 -a 0 -i 4 -k AGT
+ -t 10.009665100 -s 0 -d 1 -p tcp -e 1060 -c 2 -a 0 -i 4 -k RTR 
- -t 10.009665100 -s 0 -d 1 -p tcp -e 1060 -c 2 -a 0 -i 4 -k RTR
h -t 10.009665100 -s 0 -d 1 -p tcp -e 1060 -c 2 -a 0 -i 4 -k RTR
+ -t 10.009665100 -s 0 -d -1 -p tcp -e 1040 -c 2 -a 0 -i 5 -k AGT 
- -t 10.009665100 -s 0 -d -1 -p tcp -e 1040 -c 2 -a 0 -i 5 -k AGT
h -t 10.009665100 -s 0 -d -1 -p tcp -e 1040 -c 2 -a 0 -i 5 -k AGT
+ -t 10.009665100 -s 0 -d 1 -p tcp -e 1060 -c 2 -a 0 -i 5 -k RTR 
- -t 10.009665100 -s 0 -d 1 -p tcp -e 1060 -c 2 -a 0 -i 5 -k RTR
h -t 10.009665100 -s 0 -d 1 -p tcp -e 1060 -c 2 -a 0 -i 5 -k RTR
r -t 10.020129549 -s 1 -d 1 -p tcp -e 1060 -c 2 -a 0 -i 4 -k AGT
+ -t 10.020129549 -s 1 -d -1 -p ack -e 40 -c 2 -a 0 -i 6 -k AGT 
- -t 10.020129549 -s 1 -d -1 -p ack -e 40 -c 2 -a 0 -i 6 -k AGT
h -t 10.020129549 -s 1 -d -1 -p ack -e 40 -c 2 -a 0 -i 6 -k AGT
+ -t 10.020129549 -s 1 -d 0 -p ack -e 60 -c 2 -a 0 -i 6 -k RTR 
- -t 10.020129549 -s 1 -d 0 -p ack -e 60 -c 2 -a 0 -i 6 -k RTR
h -t 10.020129549 -s 1 -d 0 -p ack -e 60 -c 2 -a 0 -i 6 -k RTR
r -t 10.032468598 -s 0 -d 0 -p ack -e 60 -c 2 -a 0 -i 6 -k AGT
+ -t 10.032468598 -s 0 -d -1 -p tcp -e 1040 -c 2 -a 0 -i 7 -k AGT 
- -t 10.032468598 -s 0 -d -1 -p tcp -e 1040 -c 2 -a 0 -i 7 -k AGT
h -t 10.032468598 -s 0 -d -1 -p tcp -e 1040 -c 2 -a 0 -i 7 -k AGT
+ -t 10.032468598 -s 0 -d 1 -p tcp -e 1060 -c 2 -a 0 -i 7 -k RTR 
- -t 10.032468598 -s 0 -d 1 -p tcp -e 1060 -c 2 -a 0 -i 7 -k RTR
h -t 10.032468598 -s 0 -d 1 -p tcp -e 1060 -c 2 -a 0 -i 7 -k RTR
+ -t 10.032468598 -s 0 -d -1 -p tcp -e 1040 -c 2 -a 0 -i 8 -k AGT 
- -t 10.032468598 -s 0 -d -1 -p tcp -e 1040 -c 2 -a 0 -i 8 -k AGT
h -t 10.032468598 -s 0 -d -1 -p tcp -e 1040 -c 2 -a 0 -i 8 -k AGT
+ -t 10.032468598 -s 0 -d 1 -p tcp -e 1060 -c 2 -a 0 -i 8 -k RTR 
- -t 10.032468598 -s 0 -d 1 -p tcp -e 1060 -c 2 -a 0 -i 8 -k RTR
h -t 10.032468598 -s 0 -d 1 -p tcp -e 1060 -c 2 -a 0 -i 8 -k RTR
r -t 10.043233047 -s 1 -d 1 -p tcp -e 1060 -c 2 -a 0 -i 5 -k AGT
+ -t 10.043233047 -s 1 -d -1 -p ack -e 40 -c 2 -a 0 -i 9 -k AGT 
- -t 10.043233047 -s 1 -d -1 -p ack -e 40 -c 2 -a 0 -i 9 -k AGT
h -t 10.043233047 -s 1 -d -1 -p ack -e 40 -c 2 -a 0 -i 9 -k AGT
+ -t 10.043233047 -s 1 -d 0 -p ack -e 60 -c 2 -a 0 -i 9 -k RTR 
- -t 10.043233047 -s 1 -d 0 -p ack -e 60 -c 2 -a 0 -i 9 -k RTR
h -t 10.043233047 -s 1 -d 0 -p ack -e 60 -c 2 -a 0 -i 9 -k RTR
r -t 10.045457496 -s 0 -d 0 -p ack -e 60 -c 2 -a 0 -i 9 -k AGT
+ -t 10.045457496 -s 0 -d -1 -p tcp -e 1040 -c 2 -a 0 -i 10 -k AGT 
- -t 10.045457496 -s 0 -d -1 -p tcp -e 1040 -c 2 -a 0 -i 10 -k AGT
h -t 10.045457496 -s 0 -d -1 -p tcp -e 1040 -c 2 -a 0 -i 10 -k AGT
+ -t 10.045457496 -s 0 -d 1 -p tcp -e 1060 -c 2 -a 0 -i 10 -k RTR 
- -t 10.045457496 -s 0 -d 1 -p tcp -e 1060 -c 2 -a 0 -i 10 -k RTR
h -t 10.045457496 -s 0 -d 1 -p tcp -e 1060 -c 2 -a 0 -i 10 -k RTR
+ -t 10.045457496 -s 0 -d -1 -p tcp -e 1040 -c 2 -a 0 -i 11 -k AGT 
- -t 10.045457496 -s 0 -d -1 -p tcp -e 1040 -c 2 -a 0 -i 11 -k AGT
h -t 10.045457496 -s 0 -d -1 -p tcp -e 1040 -c 2 -a 0 -i 11 -k AGT
+ -t 10.045457496 -s 0 -d 1 -p tcp -e 1060 -c 2 -a 0 -i 11 -k RTR 
- -t 10.045457496 -s 0 -d 1 -p tcp -e 1060 -c 2 -a 0 -i 11 -k RTR
h -t 10.045457496 -s 0 -d 1 -p tcp -e 1060 -c 2 -a 0 -i 11 -k RTR
r -t 10.057181945 -s 1 -d 1 -p tcp -e 1060 -c 2 -a 0 -i 7 -k AGT
+ -t 10.057181945 -s 1 -d -1 -p ack -e 40 -c 2 -a 0 -i 12 -k AGT 
- -t 10.057181945 -s 1 -d -1 -p ack -e 40 -c 2 -a 0 -i 12 -k AGT
h -t 10.057181945 -s 1 -d -1 -p ack -e 40 -c 2 -a 0 -i 12 -k AGT
+ -t 10.057181945 -s 1 -d 0 -p ack -e 60 -c 2 -a 0 -i 12 -k RTR 
- -t 10.057181945 -s 1 -d 0 -p ack -e 60 -c 2 -a 0 -i 12 -k RTR
h -t 10.057181945 -s 1 -d 0 -p ack -e 60 -c 2 -a 0 -i 12 -k RTR
r -t 10.059566394 -s 0 -d 0 -p ack -e 60 -c 2 -a 0 -i 12 -k AGT
+ -t 10.059566394 -s 0 -d -1 -p tcp -e 1040 -c 2 -a 0 -i 13 -k AGT 
- -t 10.059566394 -s 0 -d -1 -p tcp -e 1040 -c 2 -a 0 -i 13 -k AGT
h -t 10.059566394 -s 0 -d -1 -p tcp -e 1040 -c 2 -a 0 -i 13 -k AGT
+ -t 10.059566394 -s 0 -d 1 -p tcp -e 1060 -c 2 -a 0 -i 13 -k RTR 
- -t 10.059566394 -s 0 -d 1 -p tcp -e 1060 -c 2 -a 0 -i 13 -k RTR
h -t 10.059566394 -s 0 -d 1 -p tcp -e 1060 -c 2 -a 0 -i 13 -k RTR
+ -t 10.059566394 -s 0 -d -1 -p tcp -e 1040 -c 2 -a 0 -i 14 -k AGT 
- -t 10.059566394 -s 0 -d -1 -p tcp -e 1040 -c 2 -a 0 -i 14 -k AGT
h -t 10.059566394 -s 0 -d -1 -p tcp -e 1040 -c 2 -a 0 -i 14 -k AGT
+ -t 10.059566394 -s 0 -d 1 -p tcp -e 1060 -c 2 -a 0 -i 14 -k RTR 
- -t 10.059566394 -s 0 -d 1 -p tcp -e 1060 -c 2 -a 0 -i 14 -k RTR
h -t 10.059566394 -s 0 -d 1 -p tcp -e 1060 -c 2 -a 0 -i 14 -k RTR
r -t 10.082399441 -s 1 -d 1 -p tcp -e 1060 -c 2 -a 0 -i 8 -k AGT
+ -t 10.082399441 -s 1 -d -1 -p ack -e 40 -c 2 -a 0 -i 15 -k AGT 
- -t 10.082399441 -s 1 -d -1 -p ack -e 40 -c 2 -a 0 -i 15 -k AGT
h -t 10.082399441 -s 1 -d -1 -p ack -e 40 -c 2 -a 0 -i 15 -k AGT
+ -t 10.082399441 -s 1 -d 0 -p ack -e 60 -c 2 -a 0 -i 15 -k RTR 
- -t 10.082399441 -s 1 -d 0 -p ack -e 60 -c 2 -a 0 -i 15 -k RTR
h -t 10.082399441 -s 1 -d 0 -p ack -e 60 -c 2 -a 0 -i 15 -k RTR
r -t 10.092524039 -s 1 -d 1 -p tcp -e 1060 -c 2 -a 0 -i 10 -k AGT
+ -t 10.092524039 -s 1 -d -1 -p ack -e 40 -c 2 -a 0 -i 16 -k AGT 
- -t 10.092524039 -s 1 -d -1 -p ack -e 40 -c 2 -a 0 -i 16 -k AGT
h -t 10.092524039 -s 1 -d -1 -p ack -e 40 -c 2 -a 0 -i 16 -k AGT
+ -t 10.092524039 -s 1 -d 0 -p ack -e 60 -c 2 -a 0 -i 16 -k RTR 
- -t 10.092524039 -s 1 -d 0 -p ack -e 60 -c 2 -a 0 -i 16 -k RTR
h -t 10.092524039 -s 1 -d 0 -p ack -e 60 -c 2 -a 0 -i 16 -k RTR
r -t 10.102588636 -s 1 -d 1 -p tcp -e 1060 -c 2 -a 0 -i 11 -k AGT
+ -t 10.102588636 -s 1 -d -1 -p ack -e 40 -c 2 -a 0 -i 17 -k AGT 
- -t 10.102588636 -s 1 -d -1 -p ack -e 40 -c 2 -a 0 -i 17 -k AGT
h -t 10.102588636 -s 1 -d -1 -p ack -e 40 -c 2 -a 0 -i 17 -k AGT
+ -t 10.102588636 -s 1 -d 0 -p ack -e 60 -c 2 -a 0 -i 17 -k RTR 
- -t 10.102588636 -s 1 -d 0 -p ack -e 60 -c 2 -a 0 -i 17 -k RTR
h -t 10.102588636 -s 1 -d 0 -p ack -e 60 -c 2 -a 0 -i 17 -k RTR
r -t 10.112853233 -s 1 -d 1 -p tcp -e 1060 -c 2 -a 0 -i 13 -k AGT
+ -t 10.112853233 -s 1 -d -1 -p ack -e 40 -c 2 -a 0 -i 18 -k AGT 
- -t 10.112853233 -s 1 -d -1 -p ack -e 40 -c 2 -a 0 -i 18 -k AGT
h -t 10.112853233 -s 1 -d -1 -p ack -e 40 -c 2 -a 0 -i 18 -k AGT
+ -t 10.112853233 -s 1 -d 0 -p ack -e 60 -c 2 -a 0 -i 18 -k RTR 
- -t 10.112853233 -s 1 -d 0 -p ack -e 60 -c 2 -a 0 -i 18 -k RTR
h -t 10.112853233 -s 1 -d 0 -p ack -e 60 -c 2 -a 0 -i 18 -k RTR
r -t 10.123037830 -s 1 -d 1 -p tcp -e 1060 -c 2 -a 0 -i 14 -k AGT
+ -t 10.123037830 -s 1 -d -1 -p ack -e 40 -c 2 -a 0 -i 19 -k AGT 
- -t 10.123037830 -s 1 -d -1 -p ack -e 40 -c 2 -a 0 -i 19 -k AGT
h -t 10.123037830 -s 1 -d -1 -p ack -e 40 -c 2 -a 0 -i 19 -k AGT
+ -t 10.123037830 -s 1 -d 0 -p ack -e 60 -c 2 -a 0 -i 19 -k RTR 
- -t 10.123037830 -s 1 -d 0 -p ack -e 60 -c 2 -a 0 -i 19 -k RTR
h -t 10.123037830 -s 1 -d 0 -p ack -e 60 -c 2 -a 0 -i 19 -k RTR
r -t 10.127906874 -s 0 -d 0 -p ack -e 60 -c 2 -a 0 -i 15 -k AGT
+ -t 10.127906874 -s 0 -d -1 -p tcp -e 1040 -c 2 -a 0 -i 20 -k AGT 
- -t 10.127906874 -s 0 -d -1 -p tcp -e 1040 -c 2 -a 0 -i 20 -k AGT
h -t 10.127906874 -s 0 -d -1 -p tcp -e 1040 -c 2 -a 0 -i 20 -k AGT
+ -t 10.127906874 -s 0 -d 1 -p tcp -e 1060 -c 2 -a 0 -i 20 -k RTR 
- -t 10.127906874 -s 0 -d 1 -p tcp -e 1060 -c 2 -a 0 -i 20 -k RTR
h -t 10.127906874 -s 0 -d 1 -p tcp -e 1060 -c 2 -a 0 -i 20 -k RTR
+ -t 10.127906874 -s 0 -d -1 -p tcp -e 1040 -c 2 -a 0 -i 21 -k AGT 
- -t 10.127906874 -s 0 -d -1 -p tcp -e 1040 -c 2 -a 0 -i 21 -k AGT
h -t 10.127906874 -s 0 -d -1 -p tcp -e 1040 -c 2 -a 0 -i 21 -k AGT
+ -t 10.127906874 -s 0 -d 1 -p tcp -e 1060 -c 2 -a 0 -i 21 -k RTR 
- -t 10.127906874 -s 0 -d 1 -p tcp -e 1060 -c 2 -a 0 -i 21 -k RTR
h -t 10.127906874 -s 0 -d 1 -p tcp -e 1060 -c 2 -a 0 -i 21 -k RTR
r -t 10.140145917 -s 1 -d 1 -p tcp -e 1060 -c 2 -a 0 -i 20 -k AGT
+ -t 10.140145917 -s 1 -d -1 -p ack -e 40 -c 2 -a 0 -i 22 -k AGT 
- -t 10.140145917 -s 1 -d -1 -p ack -e 40 -c 2 -a 0 -i 22 -k AGT
h -t 10.140145917 -s 1 -d -1 -p ack -e 40 -c 2 -a 0 -i 22 -k AGT
+ -t 10.140145917 -s 1 -d 0 -p ack -e 60 -c 2 -a 0 -i 22 -k RTR 
- -t 10.140145917 -s 1 -d 0 -p ack -e 60 -c 2 -a 0 -i 22 -k RTR
h -t 10.140145917 -s 1 -d 0 -p ack -e 60 -c 2 -a 0 -i 22 -k RTR
r -t 10.150190514 -s 1 -d 1 -p tcp -e 1060 -c 2 -a 0 -i 21 -k AGT
+ -t 10.150190514 -s 1 -d -1 -p ack -e 40 -c 2 -a 0 -i 23 -k AGT 
- -t 10.150190514 -s 1 -d -1 -p ack -e 40 -c 2 -a 0 -i 23 -k AGT
h -t 10.150190514 -s 1 -d -1 -p ack -e 40 -c 2 -a 0 -i 23 -k AGT
+ -t 10.150190514 -s 1 -d 0 -p ack -e 60 -c 2 -a 0 -i 23 -k RTR 
- -t 10.150190514 -s 1 -d 0 -p ack -e 60 -c 2 -a 0 -i 23 -k RTR
h -t 10.150190514 -s 1 -d 0 -p ack -e 60 -c 2 -a 0 -i 23 -k RTR
r -t 10.152254960 -s 0 -d 0 -p ack -e 60 -c 2 -a 0 -i 16 -k AGT
+ -t 10.152254960 -s 0 -d -1 -p tcp -e 1040 -c 2 -a 0 -i 24 -k AGT 
- -t 10.152254960 -s 0 -d -1 -p tcp -e 1040 -c 2 -a 0 -i 24 -k AGT
h -t 10.152254960 -s 0 -d -1 -p tcp -e 1040 -c 2 -a 0 -i 24 -k AGT
+ -t 10.152254960 -s 0 -d 1 -p tcp -e 1060 -c 2 -a 0 -i 24 -k RTR 
- -t 10.152254960 -s 0 -d 1 -p tcp -e 1060 -c 2 -a 0 -i 24 -k RTR
h -t 10.152254960 -s 0 -d 1 -p tcp -e 1060 -c 2 -a 0 -i 24 -k RTR
+ -t 10.152254960 -s 0 -d -1 -p tcp -e 1040 -c 2 -a 0 -i 25 -k AGT 
- -t 10.152254960 -s 0 -d -1 -p tcp -e 1040 -c 2 -a 0 -i 25 -k AGT
h -t 10.152254960 -s 0 -d -1 -p tcp -e 1040 -c 2 -a 0 -i 25 -k AGT
+ -t 10.152254960 -s 0 -d 1 -p tcp -e 1060 -c 2 -a 0 -i 25 -k RTR 
- -t 10.152254960 -s 0 -d 1 -p tcp -e 1060 -c 2 -a 0 -i 25 -k RTR
h -t 10.152254960 -s 0 -d 1 -p tcp -e 1060 -c 2 -a 0 -i 25 -k RTR
r -t 10.162299407 -s 1 -d 1 -p tcp -e 1060 -c 2 -a 0 -i 24 -k AGT
+ -t 10.162299407 -s 1 -d -1 -p ack -e 40 -c 2 -a 0 -i 26 -k AGT 
- -t 10.162299407 -s 1 -d -1 -p ack -e 40 -c 2 -a 0 -i 26 -k AGT
h -t 10.162299407 -s 1 -d -1 -p ack -e 40 -c 2 -a 0 -i 26 -k AGT
+ -t 10.162299407 -s 1 -d 0 -p ack -e 60 -c 2 -a 0 -i 26 -k RTR 
- -t 10.162299407 -s 1 -d 0 -p ack -e 60 -c 2 -a 0 -i 26 -k RTR
h -t 10.162299407 -s 1 -d 0 -p ack -e 60 -c 2 -a 0 -i 26 -k RTR
r -t 10.164583854 -s 0 -d 0 -p ack -e 60 -c 2 -a 0 -i 17 -k AGT
+ -t 10.164583854 -s 0 -d -1 -p tcp -e 1040 -c 2 -a 0 -i 27 -k AGT 
- -t 10.164583854 -s 0 -d -1 -p tcp -e 1040 -c 2 -a 0 -i 27 -k AGT
h -t 10.164583854 -s 0 -d -1 -p tcp -e 1040 -c 2 -a 0 -i 27 -k AGT
+ -t 10.164583854 -s 0 -d 1 -p tcp -e 1060 -c 2 -a 0 -i 27 -k RTR 
- -t 10.164583854 -s 0 -d 1 -p tcp -e 1060 -c 2 -a 0 -i 27 -k RTR
h -t 10.164583854 -s 0 -d 1 -p tcp -e 1060 -c 2 -a 0 -i 27 -k RTR
+ -t 10.164583854 -s 0 -d -1 -p tcp -e 1040 -c 2 -a 0 -i 28 -k AGT 
- -t 10.164583854 -s 0 -d -1 -p tcp -e 1040 -c 2 -a 0 -i 28 -k AGT
h -t 10.164583854 -s 0 -d -1 -p tcp -e 1040 -c 2 -a 0 -i 28 -k AGT
+ -t 10.164583854 -s 0 -d 1 -p tcp -e 1060 -c 2 -a 0 -i 28 -k RTR 
- -t 10.164583854 -s 0 -d 1 -p tcp -e 1060 -c 2 -a 0 -i 28 -k RTR
h -t 10.164583854 -s 0 -d 1 -p tcp -e 1060 -c 2 -a 0 -i 28 -k RTR
r -t 10.178707044 -s 0 -d 0 -p ack -e 60 -c 2 -a 0 -i 18 -k AGT
+ -t 10.178707044 -s 0 -d -1 -p tcp -e 1040 -c 2 -a 0 -i 29 -k AGT 
- -t 10.178707044 -s 0 -d -1 -p tcp -e 1040 -c 2 -a 0 -i 29 -k AGT
h -t 10.178707044 -s 0 -d -1 -p tcp -e 1040 -c 2 -a 0 -i 29 -k AGT
+ -t 10.178707044 -s 0 -d 1 -p tcp -e 1060 -c 2 -a 0 -i 29 -k RTR 
- -t 10.178707044 -s 0 -d 1 -p tcp -e 1060 -c 2 -a 0 -i 29 -k RTR
h -t 10.178707044 -s 0 -d 1 -p tcp -e 1060 -c 2 -a 0 -i 29 -k RTR
+ -t 10.178707044 -s 0 -d -1 -p tcp -e 1040 -c 2 -a 0 -i 30 -k AGT 
- -t 10.178707044 -s 0 -d -1 -p tcp -e 1040 -c 2 -a 0 -i 30 -k AGT
h -t 10.178707044 -s 0 -d -1 -p tcp -e 1040 -c 2 -a 0 -i 30 -k AGT
+ -t 10.178707044 -s 0 -d 1 -p tcp -e 1060 -c 2 -a 0 -i 30 -k RTR 
- -t 10.178707044 -s 0 -d 1 -p tcp -e 1060 -c 2 -a 0 -i 30 -k RTR
h -t 10.178707044 -s 0 -d 1 -p tcp -e 1060 -c 2 -a 0 -i 30 -k RTR
r -t 10.184980234 -s 0 -d 0 -p ack -e 60 -c 2 -a 0 -i 19 -k AGT
+ -t 10.184980234 -s 0 -d -1 -p tcp -e 1040 -c 2 -a 0 -i 31 -k AGT 
- -t 10.184980234 -s 0 -d -1 -p tcp -e 1040 -c 2 -a 0 -i 31 -k AGT
h -t 10.184980234 -s 0 -d -1 -p tcp -e 1040 -c 2 -a 0 -i 31 -k AGT
+ -t 10.184980234 -s 0 -d 1 -p tcp -e 1060 -c 2 -a 0 -i 31 -k RTR 
- -t 10.184980234 -s 0 -d 1 -p tcp -e 1060 -c 2 -a 0 -i 31 -k RTR
h -t 10.184980234 -s 0 -d 1 -p tcp -e 1060 -c 2 -a 0 -i 31 -k RTR
+ -t 10.184980234 -s 0 -d -1 -p tcp -e 1040 -c 2 -a 0 -i 32 -k AGT 
- -t 10.184980234 -s 0 -d -1 -p tcp -e 1040 -c 2 -a 0 -i 32 -k AGT
h -t 10.184980234 -s 0 -d -1 -p tcp -e 1040 -c 2 -a 0 -i 32 -k AGT
+ -t 10.184980234 -s 0 -d 1 -p tcp -e 1060 -c 2 -a 0 -i 32 -k RTR 
- -t 10.184980234 -s 0 -d 1 -p tcp -e 1060 -c 2 -a 0 -i 32 -k RTR
h -t 10.184980234 -s 0 -d 1 -p tcp -e 1060 -c 2 -a 0 -i 32 -k RTR
r -t 10.187044829 -s 0 -d 0 -p ack -e 60 -c 2 -a 0 -i 22 -k AGT
+ -t 10.187044829 -s 0 -d -1 -p tcp -e 1040 -c 2 -a 0 -i 33 -k AGT 
- -t 10.187044829 -s 0 -d -1 -p tcp -e 1040 -c 2 -a 0 -i 33 -k AGT
h -t 10.187044829 -s 0 -d -1 -p tcp -e 1040 -c 2 -a 0 -i 33 -k AGT
+ -t 10.187044829 -s 0 -d 1 -p tcp -e 1060 -c 2 -a 0 -i 33 -k RTR 
- -t 10.187044829 -s 0 -d 1 -p tcp -e 1060 -c 2 -a 0 -i 33 -k RTR
h -t 10.187044829 -s 0 -d 1 -p tcp -e 1060 -c 2 -a 0 -i 33 -k RTR
+ -t 10.187044829 -s 0 -d -1 -p tcp -e 1040 -c 2 -a 0 -i 34 -k AGT 
- -t 10.187044829 -s 0 -d -1 -p tcp -e 1040 -c 2 -a 0 -i 34 -k AGT
h -t 10.187044829 -s 0 -d -1 -p tcp -e 1040 -c 2 -a 0 -i 34 -k AGT
+ -t 10.187044829 -s 0 -d 1 -p tcp -e 1060 -c 2 -a 0 -i 34 -k RTR 
- -t 10.187044829 -s 0 -d 1 -p tcp -e 1060 -c 2 -a 0 -i 34 -k RTR
h -t 10.187044829 -s 0 -d 1 -p tcp -e 1060 -c 2 -a 0 -i 34 -k RTR
r -t 10.189329423 -s 0 -d 0 -p ack -e 60 -c 2 -a 0 -i 23 -k AGT
+ -t 10.189329423 -s 0 -d -1 -p tcp -e 1040 -c 2 -a 0 -i 35 -k AGT 
- -t 10.189329423 -s 0 -d -1 -p tcp -e 1040 -c 2 -a 0 -i 35 -k AGT
h -t 10.189329423 -s 0 -d -1 -p tcp -e 1040 -c 2 -a 0 -i 35 -k AGT
+ -t 10.189329423 -s 0 -d 1 -p tcp -e 1060 -c 2 -a 0 -i 35 -k RTR 
- -t 10.189329423 -s 0 -d 1 -p tcp -e 1060 -c 2 -a 0 -i 35 -k RTR
h -t 10.189329423 -s 0 -d 1 -p tcp -e 1060 -c 2 -a 0 -i 35 -k RTR
+ -t 10.189329423 -s 0 -d -1 -p tcp -e 1040 -c 2 -a 0 -i 36 -k AGT 
- -t 10.189329423 -s 0 -d -1 -p tcp -e 1040 -c 2 -a 0 -i 36 -k AGT
h -t 10.189329423 -s 0 -d -1 -p tcp -e 1040 -c 2 -a 0 -i 36 -k AGT
+ -t 10.189329423 -s 0 -d 1 -p tcp -e 1060 -c 2 -a 0 -i 36 -k RTR 
- -t 10.189329423 -s 0 -d 1 -p tcp -e 1060 -c 2 -a 0 -i 36 -k RTR
h -t 10.189329423 -s 0 -d 1 -p tcp -e 1060 -c 2 -a 0 -i 36 -k RTR
r -t 10.192834316 -s 0 -d 0 -p ack -e 60 -c 2 -a 0 -i 26 -k AGT
+ -t 10.192834316 -s 0 -d -1 -p tcp -e 1040 -c 2 -a 0 -i 37 -k AGT 
- -t 10.192834316 -s 0 -d -1 -p tcp -e 1040 -c 2 -a 0 -i 37 -k AGT
h -t 10.192834316 -s 0 -d -1 -p tcp -e 1040 -c 2 -a 0 -i 37 -k AGT
+ -t 10.192834316 -s 0 -d 1 -p tcp -e 1060 -c 2 -a 0 -i 37 -k RTR 
- -t 10.192834316 -s 0 -d 1 -p tcp -e 1060 -c 2 -a 0 -i 37 -k RTR
h -t 10.192834316 -s 0 -d 1 -p tcp -e 1060 -c 2 -a 0 -i 37 -k RTR
+ -t 10.192834316 -s 0 -d -1 -p tcp -e 1040 -c 2 -a 0 -i 38 -k AGT 
- -t 10.192834316 -s 0 -d -1 -p tcp -e 1040 -c 2 -a 0 -i 38 -k AGT
h -t 10.192834316 -s 0 -d -1 -p tcp -e 1040 -c 2 -a 0 -i 38 -k AGT
+ -t 10.192834316 -s 0 -d 1 -p tcp -e 1060 -c 2 -a 0 -i 38 -k RTR 
- -t 10.192834316 -s 0 -d 1 -p tcp -e 1060 -c 2 -a 0 -i 38 -k RTR
h -t 10.192834316 -s 0 -d 1 -p tcp -e 1060 -c 2 -a 0 -i 38 -k RTR
r -t 10.208738761 -s 1 -d 1 -p tcp -e 1060 -c 2 -a 0 -i 25 -k AGT
+ -t 10.208738761 -s 1 -d -1 -p ack -e 40 -c 2 -a 0 -i 39 -k AGT 
- -t 10.208738761 -s 1 -d -1 -p ack -e 40 -c 2 -a 0 -i 39 -k AGT
h -t 10.208738761 -s 1 -d -1 -p ack -e 40 -c 2 -a 0 -i 39 -k AGT
+ -t 10.208738761 -s 1 -d 0 -p ack -e 60 -c 2 -a 0 -i 39 -k RTR 
- -t 10.208738761 -s 1 -d 0 -p ack -e 60 -c 2 -a 0 -i 39 -k RTR
h -t 10.208738761 -s 1 -d 0 -p ack -e 60 -c 2 -a 0 -i 39 -k RTR
r -t 10.218743356 -s 1 -d 1 -p tcp -e 1060 -c 2 -a 0 -i 27 -k AGT
+ -t 10.218743356 -s 1 -d -1 -p ack -e 40 -c 2 -a 0 -i 40 -k AGT 
- -t 10.218743356 -s 1 -d -1 -p ack -e 40 -c 2 -a 0 -i 40 -k AGT
h -t 10.218743356 -s 1 -d -1 -p ack -e 40 -c 2 -a 0 -i 40 -k AGT
+ -t 10.218743356 -s 1 -d 0 -p ack -e 60 -c 2 -a 0 -i 40 -k RTR 
- -t 10.218743356 -s 1 -d 0 -p ack -e 60 -c 2 -a 0 -i 40 -k RTR
h -t 10.218743356 -s 1 -d 0 -p ack -e 60 -c 2 -a 0 -i 40 -k RTR
r -t 10.220987801 -s 0 -d 0 -p ack -e 60 -c 2 -a 0 -i 39 -k AGT
+ -t 10.220987801 -s 0 -d -1 -p tcp -e 1040 -c 2 -a 0 -i 41 -k AGT 
- -t 10.220987801 -s 0 -d -1 -p tcp -e 1040 -c 2 -a 0 -i 41 -k AGT
h -t 10.220987801 -s 0 -d -1 -p tcp -e 1040 -c 2 -a 0 -i 41 -k AGT
+ -t 10.220987801 -s 0 -d 1 -p tcp -e 1060 -c 2 -a 0 -i 41 -k RTR 
- -t 10.220987801 -s 0 -d 1 -p tcp -e 1060 -c 2 -a 0 -i 41 -k RTR
h -t 10.220987801 -s 0 -d 1 -p tcp -e 1060 -c 2 -a 0 -i 41 -k RTR
+ -t 10.220987801 -s 0 -d -1 -p tcp -e 1040 -c 2 -a 0 -i 42 -k AGT 
- -t 10.220987801 -s 0 -d -1 -p tcp -e 1040 -c 2 -a 0 -i 42 -k AGT
h -t 10.220987801 -s 0 -d -1 -p tcp -e 1040 -c 2 -a 0 -i 42 -k AGT
+ -t 10.220987801 -s 0 -d 1 -p tcp -e 1060 -c 2 -a 0 -i 42 -k RTR 
- -t 10.220987801 -s 0 -d 1 -p tcp -e 1060 -c 2 -a 0 -i 42 -k RTR
h -t 10.220987801 -s 0 -d 1 -p tcp -e 1060 -c 2 -a 0 -i 42 -k RTR
r -t 10.223212395 -s 0 -d 0 -p ack -e 60 -c 2 -a 0 -i 40 -k AGT
+ -t 10.223212395 -s 0 -d -1 -p tcp -e 1040 -c 2 -a 0 -i 43 -k AGT 
- -t 10.223212395 -s 0 -d -1 -p tcp -e 1040 -c 2 -a 0 -i 43 -k AGT
h -t 10.223212395 -s 0 -d -1 -p tcp -e 1040 -c 2 -a 0 -i 43 -k AGT
+ -t 10.223212395 -s 0 -d 1 -p tcp -e 1060 -c 2 -a 0 -i 43 -k RTR 
- -t 10.223212395 -s 0 -d 1 -p tcp -e 1060 -c 2 -a 0 -i 43 -k RTR
h -t 10.223212395 -s 0 -d 1 -p tcp -e 1060 -c 2 -a 0 -i 43 -k RTR
+ -t 10.223212395 -s 0 -d -1 -p tcp -e 1040 -c 2 -a 0 -i 44 -k AGT 
- -t 10.223212395 -s 0 -d -1 -p tcp -e 1040 -c 2 -a 0 -i 44 -k AGT
h -t 10.223212395 -s 0 -d -1 -p tcp -e 1040 -c 2 -a 0 -i 44 -k AGT
+ -t 10.223212395 -s 0 -d 1 -p tcp -e 1060 -c 2 -a 0 -i 44 -k RTR 
- -t 10.223212395 -s 0 -d 1 -p tcp -e 1060 -c 2 -a 0 -i 44 -k RTR
h -t 10.223212395 -s 0 -d 1 -p tcp -e 1060 -c 2 -a 0 -i 44 -k RTR
r -t 10.254970027 -s 1 -d 1 -p tcp -e 1060 -c 2 -a 0 -i 28 -k AGT
+ -t 10.254970027 -s 1 -d -1 -p ack -e 40 -c 2 -a 0 -i 45 -k AGT 
- -t 10.254970027 -s 1 -d -1 -p ack -e 40 -c 2 -a 0 -i 45 -k AGT
h -t 10.254970027 -s 1 -d -1 -p ack -e 40 -c 2 -a 0 -i 45 -k AGT
+ -t 10.254970027 -s 1 -d 0 -p ack -e 60 -c 2 -a 0 -i 45 -k RTR 
- -t 10.254970027 -s 1 -d 0 -p ack -e 60 -c 2 -a 0 -i 45 -k RTR
h -t 10.254970027 -s 1 -d 0 -p ack -e 60 -c 2 -a 0 -i 45 -k RTR
r -t 10.265074620 -s 1 -d 1 -p tcp -e 1060 -c 2 -a 0 -i 29 -k AGT
+ -t 10.265074620 -s 1 -d -1 -p ack -e 40 -c 2 -a 0 -i 46 -k AGT 
- -t 10.265074620 -s 1 -d -1 -p ack -e 40 -c 2 -a 0 -i 46 -k AGT
h -t 10.265074620 -s 1 -d -1 -p ack -e 40 -c 2 -a 0 -i 46 -k AGT
+ -t 10.265074620 -s 1 -d 0 -p ack -e 60 -c 2 -a 0 -i 46 -k RTR 
- -t 10.265074620 -s 1 -d 0 -p ack -e 60 -c 2 -a 0 -i 46 -k RTR
h -t 10.265074620 -s 1 -d 0 -p ack -e 60 -c 2 -a 0 -i 46 -k RTR
r -t 10.275259212 -s 1 -d 1 -p tcp -e 1060 -c 2 -a 0 -i 30 -k AGT
+ -t 10.275259212 -s 1 -d -1 -p ack -e 40 -c 2 -a 0 -i 47 -k AGT 
- -t 10.275259212 -s 1 -d -1 -p ack -e 40 -c 2 -a 0 -i 47 -k AGT
h -t 10.275259212 -s 1 -d -1 -p ack -e 40 -c 2 -a 0 -i 47 -k AGT
+ -t 10.275259212 -s 1 -d 0 -p ack -e 60 -c 2 -a 0 -i 47 -k RTR 
- -t 10.275259212 -s 1 -d 0 -p ack -e 60 -c 2 -a 0 -i 47 -k RTR
h -t 10.275259212 -s 1 -d 0 -p ack -e 60 -c 2 -a 0 -i 47 -k RTR
r -t 10.285343805 -s 1 -d 1 -p tcp -e 1060 -c 2 -a 0 -i 31 -k AGT
+ -t 10.285343805 -s 1 -d -1 -p ack -e 40 -c 2 -a 0 -i 48 -k AGT 
- -t 10.285343805 -s 1 -d -1 -p ack -e 40 -c 2 -a 0 -i 48 -k AGT
h -t 10.285343805 -s 1 -d -1 -p ack -e 40 -c 2 -a 0 -i 48 -k AGT
+ -t 10.285343805 -s 1 -d 0 -p ack -e 60 -c 2 -a 0 -i 48 -k RTR 
- -t 10.285343805 -s 1 -d 0 -p ack -e 60 -c 2 -a 0 -i 48 -k RTR
h -t 10.285343805 -s 1 -d 0 -p ack -e 60 -c 2 -a 0 -i 48 -k RTR
r -t 10.287368249 -s 0 -d 0 -p ack -e 60 -c 2 -a 0 -i 45 -k AGT
+ -t 10.287368249 -s 0 -d -1 -p tcp -e 1040 -c 2 -a 0 -i 49 -k AGT 
- -t 10.287368249 -s 0 -d -1 -p tcp -e 1040 -c 2 -a 0 -i 49 -k AGT
h -t 10.287368249 -s 0 -d -1 -p tcp -e 1040 -c 2 -a 0 -i 49 -k AGT
+ -t 10.287368249 -s 0 -d 1 -p tcp -e 1060 -c 2 -a 0 -i 49 -k RTR 
- -t 10.287368249 -s 0 -d 1 -p tcp -e 1060 -c 2 -a 0 -i 49 -k RTR
h -t 10.287368249 -s 0 -d 1 -p tcp -e 1060 -c 2 -a 0 -i 49 -k RTR
+ -t 10.287368249 -s 0 -d -1 -p tcp -e 1040 -c 2 -a 0 -i 50 -k AGT 
- -t 10.287368249 -s 0 -d -1 -p tcp -e 1040 -c 2 -a 0 -i 50 -k AGT
h -t 10.287368249 -s 0 -d -1 -p tcp -e 1040 -c 2 -a 0 -i 50 -k AGT
+ -t 10.287368249 -s 0 -d 1 -p tcp -e 1060 -c 2 -a 0 -i 50 -k RTR 
- -t 10.287368249 -s 0 -d 1 -p tcp -e 1060 -c 2 -a 0 -i 50 -k RTR
h -t 10.287368249 -s 0 -d 1 -p tcp -e 1060 -c 2 -a 0 -i 50 -k RTR
r -t 10.297412693 -s 1 -d 1 -p tcp -e 1060 -c 2 -a 0 -i 32 -k AGT
+ -t 10.297412693 -s 1 -d -1 -p ack -e 40 -c 2 -a 0 -i 51 -k AGT 
- -t 10.297412693 -s 1 -d -1 -p ack -e 40 -c 2 -a 0 -i 51 -k AGT
h -t 10.297412693 -s 1 -d -1 -p ack -e 40 -c 2 -a 0 -i 51 -k AGT
+ -t 10.297412693 -s 1 -d 0 -p ack -e 60 -c 2 -a 0 -i 51 -k RTR 
- -t 10.297412693 -s 1 -d 0 -p ack -e 60 -c 2 -a 0 -i 51 -k RTR
h -t 10.297412693 -s 1 -d 0 -p ack -e 60 -c 2 -a 0 -i 51 -k RTR
r -t 10.307597284 -s 1 -d 1 -p tcp -e 1060 -c 2 -a 0 -i 33 -k AGT
+ -t 10.307597284 -s 1 -d -1 -p ack -e 40 -c 2 -a 0 -i 52 -k AGT 
- -t 10.307597284 -s 1 -d -1 -p ack -e 40 -c 2 -a 0 -i 52 -k AGT
h -t 10.307597284 -s 1 -d -1 -p ack -e 40 -c 2 -a 0 -i 52 -k AGT
+ -t 10.307597284 -s 1 -d 0 -p ack -e 60 -c 2 -a 0 -i 52 -k RTR 
- -t 10.307597284 -s 1 -d 0 -p ack -e 60 -c 2 -a 0 -i 52 -k RTR
h -t 10.307597284 -s 1 -d 0 -p ack -e 60 -c 2 -a 0 -i 52 -k RTR
r -t 10.309601728 -s 0 -d 0 -p ack -e 60 -c 2 -a 0 -i 46 -k AGT
+ -t 10.309601728 -s 0 -d -1 -p tcp -e 1040 -c 2 -a 0 -i 53 -k AGT 
- -t 10.309601728 -s 0 -d -1 -p tcp -e 1040 -c 2 -a 0 -i 53 -k AGT
h -t 10.309601728 -s 0 -d -1 -p tcp -e 1040 -c 2 -a 0 -i 53 -k AGT
+ -t 10.309601728 -s 0 -d 1 -p tcp -e 1060 -c 2 -a 0 -i 53 -k RTR 
- -t 10.309601728 -s 0 -d 1 -p tcp -e 1060 -c 2 -a 0 -i 53 -k RTR
h -t 10.309601728 -s 0 -d 1 -p tcp -e 1060 -c 2 -a 0 -i 53 -k RTR
+ -t 10.309601728 -s 0 -d -1 -p tcp -e 1040 -c 2 -a 0 -i 54 -k AGT 
- -t 10.309601728 -s 0 -d -1 -p tcp -e 1040 -c 2 -a 0 -i 54 -k AGT
h -t 10.309601728 -s 0 -d -1 -p tcp -e 1040 -c 2 -a 0 -i 54 -k AGT
+ -t 10.309601728 -s 0 -d 1 -p tcp -e 1060 -c 2 -a 0 -i 54 -k RTR 
- -t 10.309601728 -s 0 -d 1 -p tcp -e 1060 -c 2 -a 0 -i 54 -k RTR
h -t 10.309601728 -s 0 -d 1 -p tcp -e 1060 -c 2 -a 0 -i 54 -k RTR
r -t 10.319646171 -s 1 -d 1 -p tcp -e 1060 -c 2 -a 0 -i 34 -k AGT
+ -t 10.319646171 -s 1 -d -1 -p ack -e 40 -c 2 -a 0 -i 55 -k AGT 
- -t 10.319646171 -s 1 -d -1 -p ack -e 40 -c 2 -a 0 -i 55 -k AGT
h -t 10.319646171 -s 1 -d -1 -p ack -e 40 -c 2 -a 0 -i 55 -k AGT
+ -t 10.319646171 -s 1 -d 0 -p ack -e 60 -c 2 -a 0 -i 55 -k RTR 
- -t 10.319646171 -s 1 -d 0 -p ack -e 60 -c 2 -a 0 -i 55 -k RTR
h -t 10.319646171 -s 1 -d 0 -p ack -e 60 -c 2 -a 0 -i 55 -k RTR
r -t 10.321930615 -s 0 -d 0 -p ack -e 60 -c 2 -a 0 -i 47 -k AGT
+ -t 10.321930615 -s 0 -d -1 -p tcp -e 1040 -c 2 -a 0 -i 56 -k AGT 
- -t 10.321930615 -s 0 -d -1 -p tcp -e 1040 -c 2 -a 0 -i 56 -k AGT
h -t 10.321930615 -s 0 -d -1 -p tcp -e 1040 -c 2 -a 0 -i 56 -k AGT
+ -t 10.321930615 -s 0 -d 1 -p tcp -e 1060 -c 2 -a 0 -i 56 -k RTR 
- -t 10.321930615 -s 0 -d 1 -p tcp -e 1060 -c 2 -a 0 -i 56 -k RTR
h -t 10.321930615 -s 0 -d 1 -p tcp -e 1060 -c 2 -a 0 -i 56 -k RTR
+ -t 10.321930615 -s 0 -d -1 -p tcp -e 1040 -c 2 -a 0 -i 57 -k AGT 
- -t 10.321930615 -s 0 -d -1 -p tcp -e 1040 -c 2 -a 0 -i 57 -k AGT
h -t 10.321930615 -s 0 -d -1 -p tcp -e 1040 -c 2 -a 0 -i 57 -k AGT
+ -t 10.321930615 -s 0 -d 1 -p tcp -e 1060 -c 2 -a 0 -i 57 -k RTR 
- -t 10.321930615 -s 0 -d 1 -p tcp -e 1060 -c 2 -a 0 -i 57 -k RTR
h -t 10.321930615 -s 0 -d 1 -p tcp -e 1060 -c 2 -a 0 -i 57 -k RTR
r -t 10.324035206 -s 0 -d 0 -p ack -e 60 -c 2 -a 0 -i 48 -k AGT
+ -t 10.324035206 -s 0 -d -1 -p tcp -e 1040 -c 2 -a 0 -i 58 -k AGT 
- -t 10.324035206 -s 0 -d -1 -p tcp -e 1040 -c 2 -a 0 -i 58 -k AGT
h -t 10.324035206 -s 0 -d -1 -p tcp -e 1040 -c 2 -a 0 -i 58 -k AGT
+ -t 10.324035206 -s 0 -d 1 -p tcp -e 1060 -c 2 -a 0 -i 58 -k RTR 
- -t 10.324035206 -s 0 -d 1 -p tcp -e 1060 -c 2 -a 0 -i 58 -k RTR
h -t 10.324035206 -s 0 -d 1 -p tcp -e 1060 -c 2 -a 0 -i 58 -k RTR
+ -t 10.324035206 -s 0 -d -1 -p tcp -e 1040 -c 2 -a 0 -i 59 -k AGT 
- -t 10.324035206 -s 0 -d -1 -p tcp -e 1040 -c 2 -a 0 -i 59 -k AGT
h -t 10.324035206 -s 0 -d -1 -p tcp -e 1040 -c 2 -a 0 -i 59 -k AGT
+ -t 10.324035206 -s 0 -d 1 -p tcp -e 1060 -c 2 -a 0 -i 59 -k RTR 
- -t 10.324035206 -s 0 -d 1 -p tcp -e 1060 -c 2 -a 0 -i 59 -k RTR
h -t 10.324035206 -s 0 -d 1 -p tcp -e 1060 -c 2 -a 0 -i 59 -k RTR
r -t 10.328148092 -s 0 -d 0 -p ack -e 60 -c 2 -a 0 -i 51 -k AGT
+ -t 10.328148092 -s 0 -d -1 -p tcp -e 1040 -c 2 -a 0 -i 60 -k AGT 
- -t 10.328148092 -s 0 -d -1 -p tcp -e 1040 -c 2 -a 0 -i 60 -k AGT
h -t 10.328148092 -s 0 -d -1 -p tcp -e 1040 -c 2 -a 0 -i 60 -k AGT
+ -t 10.328148092 -s 0 -d 1 -p tcp -e 1060 -c 2 -a 0 -i 60 -k RTR 
- -t 10.328148092 -s 0 -d 1 -p tcp -e 1060 -c 2 -a 0 -i 60 -k RTR
h -t 10.328148092 -s 0 -d 1 -p tcp -e 1060 -c 2 -a 0 -i 60 -k RTR
+ -t 10.328148092 -s 0 -d -1 -p tcp -e 1040 -c 2 -a 0 -i 61 -k AGT 
- -t 10.328148092 -s 0 -d -1 -p tcp -e 1040 -c 2 -a 0 -i 61 -k AGT
h -t 10.328148092 -s 0 -d -1 -p tcp -e 1040 -c 2 -a 0 -i 61 -k AGT
+ -t 10.328148092 -s 0 -d 1 -p tcp -e 1060 -c 2 -a 0 -i 61 -k RTR 
- -t 10.328148092 -s 0 -d 1 -p tcp -e 1060 -c 2 -a 0 -i 61 -k RTR
h -t 10.328148092 -s 0 -d 1 -p tcp -e 1060 -c 2 -a 0 -i 61 -k RTR
r -t 10.338252535 -s 1 -d 1 -p tcp -e 1060 -c 2 -a 0 -i 35 -k AGT
+ -t 10.338252535 -s 1 -d -1 -p ack -e 40 -c 2 -a 0 -i 62 -k AGT 
- -t 10.338252535 -s 1 -d -1 -p ack -e 40 -c 2 -a 0 -i 62 -k AGT
h -t 10.338252535 -s 1 -d -1 -p ack -e 40 -c 2 -a 0 -i 62 -k AGT
+ -t 10.338252535 -s 1 -d 0 -p ack -e 60 -c 2 -a 0 -i 62 -k RTR 
- -t 10.338252535 -s 1 -d 0 -p ack -e 60 -c 2 -a 0 -i 62 -k RTR
h -t 10.338252535 -s 1 -d 0 -p ack -e 60 -c 2 -a 0 -i 62 -k RTR
r -t 10.341997274 -s 0 -d 0 -p ack -e 60 -c 2 -a 0 -i 52 -k AGT
+ -t 10.341997274 -s 0 -d -1 -p tcp -e 1040 -c 2 -a 0 -i 63 -k AGT 
- -t 10.341997274 -s 0 -d -1 -p tcp -e 1040 -c 2 -a 0 -i 63 -k AGT
h -t 10.341997274 -s 0 -d -1 -p tcp -e 1040 -c 2 -a 0 -i 63 -k AGT
+ -t 10.341997274 -s 0 -d 1 -p tcp -e 1060 -c 2 -a 0 -i 63 -k RTR 
- -t 10.341997274 -s 0 -d 1 -p tcp -e 1060 -c 2 -a 0 -i 63 -k RTR
h -t 10.341997274 -s 0 -d 1 -p tcp -e 1060 -c 2 -a 0 -i 63 -k RTR
r -t 10.352521716 -s 1 -d 1 -p tcp -e 1060 -c 2 -a 0 -i 36 -k AGT
+ -t 10.352521716 -s 1 -d -1 -p ack -e 40 -c 2 -a 0 -i 64 -k AGT 
- -t 10.352521716 -s 1 -d -1 -p ack -e 40 -c 2 -a 0 -i 64 -k AGT
h -t 10.352521716 -s 1 -d -1 -p ack -e 40 -c 2 -a 0 -i 64 -k AGT
+ -t 10.352521716 -s 1 -d 0 -p ack -e 60 -c 2 -a 0 -i 64 -k RTR 
- -t 10.352521716 -s 1 -d 0 -p ack -e 60 -c 2 -a 0 -i 64 -k RTR
h -t 10.352521716 -s 1 -d 0 -p ack -e 60 -c 2 -a 0 -i 64 -k RTR
r -t 10.364500307 -s 1 -d 1 -p tcp -e 1060 -c 2 -a 0 -i 37 -k AGT
+ -t 10.364500307 -s 1 -d -1 -p ack -e 40 -c 2 -a 0 -i 65 -k AGT 
- -t 10.364500307 -s 1 -d -1 -p ack -e 40 -c 2 -a 0 -i 65 -k AGT
h -t 10.364500307 -s 1 -d -1 -p ack -e 40 -c 2 -a 0 -i 65 -k AGT
+ -t 10.364500307 -s 1 -d 0 -p ack -e 60 -c 2 -a 0 -i 65 -k RTR 
- -t 10.364500307 -s 1 -d 0 -p ack -e 60 -c 2 -a 0 -i 65 -k RTR
h -t 10.364500307 -s 1 -d 0 -p ack -e 60 -c 2 -a 0 -i 65 -k RTR
r -t 10.374784896 -s 1 -d 1 -p tcp -e 1060 -c 2 -a 0 -i 38 -k AGT
+ -t 10.374784896 -s 1 -d -1 -p ack -e 40 -c 2 -a 0 -i 66 -k AGT 
- -t 10.374784896 -s 1 -d -1 -p ack -e 40 -c 2 -a 0 -i 66 -k AGT
h -t 10.374784896 -s 1 -d -1 -p ack -e 40 -c 2 -a 0 -i 66 -k AGT
+ -t 10.374784896 -s 1 -d 0 -p ack -e 60 -c 2 -a 0 -i 66 -k RTR 
- -t 10.374784896 -s 1 -d 0 -p ack -e 60 -c 2 -a 0 -i 66 -k RTR
h -t 10.374784896 -s 1 -d 0 -p ack -e 60 -c 2 -a 0 -i 66 -k RTR
r -t 10.376789339 -s 0 -d 0 -p ack -e 60 -c 2 -a 0 -i 55 -k AGT
+ -t 10.376789339 -s 0 -d -1 -p tcp -e 1040 -c 2 -a 0 -i 67 -k AGT 
- -t 10.376789339 -s 0 -d -1 -p tcp -e 1040 -c 2 -a 0 -i 67 -k AGT
h -t 10.376789339 -s 0 -d -1 -p tcp -e 1040 -c 2 -a 0 -i 67 -k AGT
+ -t 10.376789339 -s 0 -d 1 -p tcp -e 1060 -c 2 -a 0 -i 67 -k RTR 
- -t 10.376789339 -s 0 -d 1 -p tcp -e 1060 -c 2 -a 0 -i 67 -k RTR
h -t 10.376789339 -s 0 -d 1 -p tcp -e 1060 -c 2 -a 0 -i 67 -k RTR
r -t 10.389148370 -s 1 -d 1 -p tcp -e 1060 -c 2 -a 0 -i 41 -k AGT