n -t * -s 0  -x 5 -y 5 -Z 0 -z 30  -v circle -c black
n -t * -s 1  -x 490 -y 285 -Z 0 -z 30  -v circle -c black
n -t * -s 2  -x 150 -y 240 -Z 0 -z 30  -v circle -c black
V -t * -v 1.0a5 -a 0
W -t * -x 500 -y 400
A -t * -n 1 -p 0 -o 0xffffffff -c 31 -a 1
A -t * -h 1 -m 2147483647 -s 0
+ -t 0.032821055 -s 1 -d -1 -p message -e 32 -c 2 -a 0 -i 0 -k RTR 
- -t 0.032821055 -s 1 -d -1 -p message -e 32 -c 2 -a 0 -i 0 -k RTR
h -t 0.032821055 -s 1 -d -1 -p message -e 32 -c 2 -a 0 -i 0 -k RTR
+ -t 0.178591360 -s 2 -d -1 -p message -e 32 -c 2 -a 0 -i 1 -k RTR 
- -t 0.178591360 -s 2 -d -1 -p message -e 32 -c 2 -a 0 -i 1 -k RTR
h -t 0.178591360 -s 2 -d -1 -p message -e 32 -c 2 -a 0 -i 1 -k RTR
r -t 0.179672281 -s 0 -d -1 -p message -e 32 -c 2 -a 0 -i 1 -k RTR
+ -t 1.113402886 -s 0 -d -1 -p message -e 32 -c 2 -a 0 -i 2 -k RTR 
- -t 1.113402886 -s 0 -d -1 -p message -e 32 -c 2 -a 0 -i 2 -k RTR
h -t 1.113402886 -s 0 -d -1 -p message -e 32 -c 2 -a 0 -i 2 -k RTR
r -t 1.114383806 -s 2 -d -1 -p message -e 32 -c 2 -a 0 -i 2 -k RTR
n -t 10.000000 -s 0 -x 5.000000 -y 5.000000 -U 2.121320 -V 2.121320 -T 115.494108
+ -t 10.000000000 -s 0 -d -1 -p tcp -e 40 -c 2 -a 0 -i 3 -k AGT 
- -t 10.000000000 -s 0 -d -1 -p tcp -e 40 -c 2 -a 0 -i 3 -k AGT
h -t 10.000000000 -s 0 -d -1 -p tcp -e 40 -c 2 -a 0 -i 3 -k AGT
+ -t 12.188269558 -s 0 -d -1 -p message -e 32 -c 2 -a 0 -i 4 -k RTR 
- -t 12.188269558 -s 0 -d -1 -p message -e 32 -c 2 -a 0 -i 4 -k RTR
h -t 12.188269558 -s 0 -d -1 -p message -e 32 -c 2 -a 0 -i 4 -k RTR
+ -t 12.523182412 -s 0 -d -1 -p message -e 44 -c 2 -a 0 -i 5 -k RTR 
- -t 12.523182412 -s 0 -d -1 -p message -e 44 -c 2 -a 0 -i 5 -k RTR
h -t 12.523182412 -s 0 -d -1 -p message -e 44 -c 2 -a 0 -i 5 -k RTR
r -t 12.524299308 -s 2 -d -1 -p message -e 44 -c 2 -a 0 -i 5 -k RTR
+ -t 13.000000000 -s 0 -d -1 -p tcp -e 40 -c 2 -a 0 -i 6 -k AGT 
- -t 13.000000000 -s 0 -d -1 -p tcp -e 40 -c 2 -a 0 -i 6 -k AGT
h -t 13.000000000 -s 0 -d -1 -p tcp -e 40 -c 2 -a 0 -i 6 -k AGT
+ -t 13.826076487 -s 2 -d -1 -p message -e 32 -c 2 -a 0 -i 8 -k RTR 
- -t 13.826076487 -s 2 -d -1 -p message -e 32 -c 2 -a 0 -i 8 -k RTR
h -t 13.826076487 -s 2 -d -1 -p message -e 32 -c 2 -a 0 -i 8 -k RTR
r -t 13.827337630 -s 1 -d -1 -p message -e 32 -c 2 -a 0 -i 8 -k RTR
+ -t 14.283862945 -s 1 -d -1 -p message -e 32 -c 2 -a 0 -i 9 -k RTR 
- -t 14.283862945 -s 1 -d -1 -p message -e 32 -c 2 -a 0 -i 9 -k RTR
h -t 14.283862945 -s 1 -d -1 -p message -e 32 -c 2 -a 0 -i 9 -k RTR
r -t 14.285224088 -s 2 -d -1 -p message -e 32 -c 2 -a 0 -i 9 -k RTR
n -t 15.000000 -s 1 -x 490.000000 -y 285.000000 -U -5.000000 -V 0.000000 -T 89.000000
+ -t 19.000000000 -s 0 -d -1 -p tcp -e 40 -c 2 -a 0 -i 10 -k AGT 
- -t 19.000000000 -s 0 -d -1 -p tcp -e 40 -c 2 -a 0 -i 10 -k AGT
h -t 19.000000000 -s 0 -d -1 -p tcp -e 40 -c 2 -a 0 -i 10 -k AGT
+ -t 25.835848695 -s 1 -d -1 -p message -e 32 -c 2 -a 0 -i 11 -k RTR 
- -t 25.835848695 -s 1 -d -1 -p message -e 32 -c 2 -a 0 -i 11 -k RTR
h -t 25.835848695 -s 1 -d -1 -p message -e 32 -c 2 -a 0 -i 11 -k RTR
r -t 25.836969660 -s 2 -d -1 -p message -e 32 -c 2 -a 0 -i 11 -k RTR
r -t 25.836970254 -s 0 -d -1 -p message -e 32 -c 2 -a 0 -i 11 -k RTR
+ -t 26.294273543 -s 2 -d -1 -p message -e 44 -c 2 -a 0 -i 12 -k RTR 
- -t 26.294273543 -s 2 -d -1 -p message -e 44 -c 2 -a 0 -i 12 -k RTR
h -t 26.294273543 -s 2 -d -1 -p message -e 44 -c 2 -a 0 -i 12 -k RTR
r -t 26.295270305 -s 0 -d -1 -p message -e 44 -c 2 -a 0 -i 12 -k RTR
+ -t 26.295270305 -s 0 -d 2 -p tcp -e 80 -c 2 -a 0 -i 3 -k RTR 
- -t 26.295270305 -s 0 -d 2 -p tcp -e 80 -c 2 -a 0 -i 3 -k RTR
h -t 26.295270305 -s 0 -d 2 -p tcp -e 80 -c 2 -a 0 -i 3 -k RTR
+ -t 26.295270305 -s 0 -d 2 -p tcp -e 80 -c 2 -a 0 -i 6 -k RTR 
- -t 26.295270305 -s 0 -d 2 -p tcp -e 80 -c 2 -a 0 -i 6 -k RTR
h -t 26.295270305 -s 0 -d 2 -p tcp -e 80 -c 2 -a 0 -i 6 -k RTR
d -t 26.295270305 -s 0 -d 2 -p tcp -e 80 -c 2 -a 0 -i 3 -k IFQ
+ -t 26.295270305 -s 0 -d 2 -p tcp -e 80 -c 2 -a 0 -i 10 -k RTR 
- -t 26.295270305 -s 0 -d 2 -p tcp -e 80 -c 2 -a 0 -i 10 -k RTR
h -t 26.295270305 -s 0 -d 2 -p tcp -e 80 -c 2 -a 0 -i 10 -k RTR
d -t 26.295270305 -s 0 -d 2 -p tcp -e 80 -c 2 -a 0 -i 6 -k IFQ
+ -t 26.350639269 -s 2 -d 1 -p tcp -e 80 -c 2 -a 0 -i 10 -k RTR 
- -t 26.350639269 -s 2 -d 1 -p tcp -e 80 -c 2 -a 0 -i 10 -k RTR
h -t 26.350639269 -s 2 -d 1 -p tcp -e 80 -c 2 -a 0 -i 10 -k RTR
r -t 26.362356784 -s 1 -d 1 -p tcp -e 80 -c 2 -a 0 -i 10 -k AGT
+ -t 26.362356784 -s 1 -d -1 -p ack -e 40 -c 2 -a 0 -i 13 -k AGT 
- -t 26.362356784 -s 1 -d -1 -p ack -e 40 -c 2 -a 0 -i 13 -k AGT
h -t 26.362356784 -s 1 -d -1 -p ack -e 40 -c 2 -a 0 -i 13 -k AGT
+ -t 26.808066262 -s 0 -d -1 -p message -e 44 -c 2 -a 0 -i 14 -k RTR 
- -t 26.808066262 -s 0 -d -1 -p message -e 44 -c 2 -a 0 -i 14 -k RTR
h -t 26.808066262 -s 0 -d -1 -p message -e 44 -c 2 -a 0 -i 14 -k RTR
r -t 26.809003019 -s 2 -d -1 -p message -e 44 -c 2 -a 0 -i 14 -k RTR
+ -t 27.018709889 -s 2 -d -1 -p message -e 44 -c 2 -a 0 -i 15 -k RTR 
- -t 27.018709889 -s 2 -d -1 -p message -e 44 -c 2 -a 0 -i 15 -k RTR
h -t 27.018709889 -s 2 -d -1 -p message -e 44 -c 2 -a 0 -i 15 -k RTR
r -t 27.019926645 -s 0 -d -1 -p message -e 44 -c 2 -a 0 -i 15 -k RTR
+ -t 28.675088117 -s 1 -d -1 -p message -e 44 -c 2 -a 0 -i 16 -k RTR 
- -t 28.675088117 -s 1 -d -1 -p message -e 44 -c 2 -a 0 -i 16 -k RTR
h -t 28.675088117 -s 1 -d -1 -p message -e 44 -c 2 -a 0 -i 16 -k RTR
r -t 28.676205035 -s 2 -d -1 -p message -e 44 -c 2 -a 0 -i 16 -k RTR
+ -t 31.000000000 -s 0 -d -1 -p tcp -e 40 -c 2 -a 0 -i 17 -k AGT 
- -t 31.000000000 -s 0 -d -1 -p tcp -e 40 -c 2 -a 0 -i 17 -k AGT
h -t 31.000000000 -s 0 -d -1 -p tcp -e 40 -c 2 -a 0 -i 17 -k AGT
+ -t 31.000000000 -s 0 -d 2 -p tcp -e 60 -c 2 -a 0 -i 17 -k RTR 
- -t 31.000000000 -s 0 -d 2 -p tcp -e 60 -c 2 -a 0 -i 17 -k RTR
h -t 31.000000000 -s 0 -d 2 -p tcp -e 60 -c 2 -a 0 -i 17 -k RTR
+ -t 31.009991588 -s 2 -d 1 -p tcp -e 60 -c 2 -a 0 -i 17 -k RTR 
- -t 31.009991588 -s 2 -d 1 -p tcp -e 60 -c 2 -a 0 -i 17 -k RTR
h -t 31.009991588 -s 2 -d 1 -p tcp -e 60 -c 2 -a 0 -i 17 -k RTR
r -t 31.025189743 -s 1 -d 1 -p tcp -e 60 -c 2 -a 0 -i 17 -k AGT
+ -t 31.025189743 -s 1 -d -1 -p ack -e 40 -c 2 -a 0 -i 18 -k AGT 
- -t 31.025189743 -s 1 -d -1 -p ack -e 40 -c 2 -a 0 -i 18 -k AGT
h -t 31.025189743 -s 1 -d -1 -p ack -e 40 -c 2 -a 0 -i 18 -k AGT
+ -t 40.954362937 -s 0 -d -1 -p message -e 56 -c 2 -a 0 -i 19 -k RTR 
- -t 40.954362937 -s 0 -d -1 -p message -e 56 -c 2 -a 0 -i 19 -k RTR
h -t 40.954362937 -s 0 -d -1 -p message -e 56 -c 2 -a 0 -i 19 -k RTR
r -t 40.955675561 -s 2 -d -1 -p message -e 56 -c 2 -a 0 -i 19 -k RTR
+ -t 41.931011511 -s 2 -d -1 -p message -e 44 -c 2 -a 0 -i 20 -k RTR 
- -t 41.931011511 -s 2 -d -1 -p message -e 44 -c 2 -a 0 -i 20 -k RTR
h -t 41.931011511 -s 2 -d -1 -p message -e 44 -c 2 -a 0 -i 20 -k RTR
r -t 41.931968125 -s 0 -d -1 -p message -e 44 -c 2 -a 0 -i 20 -k RTR
r -t 41.931968211 -s 1 -d -1 -p message -e 44 -c 2 -a 0 -i 20 -k RTR
+ -t 43.169566636 -s 1 -d -1 -p message -e 32 -c 2 -a 0 -i 21 -k RTR 
- -t 43.169566636 -s 1 -d -1 -p message -e 32 -c 2 -a 0 -i 21 -k RTR
h -t 43.169566636 -s 1 -d -1 -p message -e 32 -c 2 -a 0 -i 21 -k RTR
r -t 43.170547785 -s 0 -d -1 -p message -e 32 -c 2 -a 0 -i 21 -k RTR
+ -t 55.000000000 -s 0 -d -1 -p tcp -e 40 -c 2 -a 0 -i 22 -k AGT 
- -t 55.000000000 -s 0 -d -1 -p tcp -e 40 -c 2 -a 0 -i 22 -k AGT
h -t 55.000000000 -s 0 -d -1 -p tcp -e 40 -c 2 -a 0 -i 22 -k AGT
+ -t 55.000000000 -s 0 -d 1 -p tcp -e 60 -c 2 -a 0 -i 22 -k RTR 
- -t 55.000000000 -s 0 -d 1 -p tcp -e 60 -c 2 -a 0 -i 22 -k RTR
h -t 55.000000000 -s 0 -d 1 -p tcp -e 60 -c 2 -a 0 -i 22 -k RTR
r -t 55.017632697 -s 1 -d 1 -p tcp -e 60 -c 2 -a 0 -i 22 -k AGT
+ -t 55.017632697 -s 1 -d -1 -p ack -e 40 -c 2 -a 0 -i 23 -k AGT 
- -t 55.017632697 -s 1 -d -1 -p ack -e 40 -c 2 -a 0 -i 23 -k AGT
h -t 55.017632697 -s 1 -d -1 -p ack -e 40 -c 2 -a 0 -i 23 -k AGT
+ -t 55.142915895 -s 0 -d -1 -p message -e 56 -c 2 -a 0 -i 24 -k RTR 
- -t 55.142915895 -s 0 -d -1 -p message -e 56 -c 2 -a 0 -i 24 -k RTR
h -t 55.142915895 -s 0 -d -1 -p message -e 56 -c 2 -a 0 -i 24 -k RTR
r -t 55.143948388 -s 2 -d -1 -p message -e 56 -c 2 -a 0 -i 24 -k RTR
r -t 55.143948774 -s 1 -d -1 -p message -e 56 -c 2 -a 0 -i 24 -k RTR
+ -t 55.143948774 -s 1 -d 0 -p ack -e 80 -c 2 -a 0 -i 13 -k RTR 
- -t 55.143948774 -s 1 -d 0 -p ack -e 80 -c 2 -a 0 -i 13 -k RTR
h -t 55.143948774 -s 1 -d 0 -p ack -e 80 -c 2 -a 0 -i 13 -k RTR
+ -t 55.143948774 -s 1 -d 0 -p ack -e 80 -c 2 -a 0 -i 18 -k RTR 
- -t 55.143948774 -s 1 -d 0 -p ack -e 80 -c 2 -a 0 -i 18 -k RTR
h -t 55.143948774 -s 1 -d 0 -p ack -e 80 -c 2 -a 0 -i 18 -k RTR
+ -t 55.143948774 -s 1 -d 0 -p ack -e 80 -c 2 -a 0 -i 23 -k RTR 
- -t 55.143948774 -s 1 -d 0 -p ack -e 80 -c 2 -a 0 -i 23 -k RTR
h -t 55.143948774 -s 1 -d 0 -p ack -e 80 -c 2 -a 0 -i 23 -k RTR
r -t 55.147371410 -s 0 -d 0 -p ack -e 80 -c 2 -a 0 -i 13 -k AGT
+ -t 55.147371410 -s 0 -d -1 -p tcp -e 1040 -c 2 -a 0 -i 25 -k AGT 
- -t 55.147371410 -s 0 -d -1 -p tcp -e 1040 -c 2 -a 0 -i 25 -k AGT
h -t 55.147371410 -s 0 -d -1 -p tcp -e 1040 -c 2 -a 0 -i 25 -k AGT
+ -t 55.147371410 -s 0 -d 1 -p tcp -e 1060 -c 2 -a 0 -i 25 -k RTR 
- -t 55.147371410 -s 0 -d 1 -p tcp -e 1060 -c 2 -a 0 -i 25 -k RTR
h -t 55.147371410 -s 0 -d 1 -p tcp -e 1060 -c 2 -a 0 -i 25 -k RTR
r -t 55.157418046 -s 1 -d 1 -p tcp -e 1060 -c 2 -a 0 -i 25 -k AGT
+ -t 55.157418046 -s 1 -d -1 -p ack -e 40 -c 2 -a 0 -i 26 -k AGT 
- -t 55.157418046 -s 1 -d -1 -p ack -e 40 -c 2 -a 0 -i 26 -k AGT
h -t 55.157418046 -s 1 -d -1 -p ack -e 40 -c 2 -a 0 -i 26 -k AGT
+ -t 55.157418046 -s 1 -d 0 -p ack -e 60 -c 2 -a 0 -i 26 -k RTR 
- -t 55.157418046 -s 1 -d 0 -p ack -e 60 -c 2 -a 0 -i 26 -k RTR
h -t 55.157418046 -s 1 -d 0 -p ack -e 60 -c 2 -a 0 -i 26 -k RTR
r -t 55.218816189 -s 0 -d 0 -p ack -e 80 -c 2 -a 0 -i 18 -k AGT
+ -t 55.218816189 -s 0 -d -1 -p tcp -e 1040 -c 2 -a 0 -i 27 -k AGT 
- -t 55.218816189 -s 0 -d -1 -p tcp -e 1040 -c 2 -a 0 -i 27 -k AGT
h -t 55.218816189 -s 0 -d -1 -p tcp -e 1040 -c 2 -a 0 -i 27 -k AGT
+ -t 55.218816189 -s 0 -d 1 -p tcp -e 1060 -c 2 -a 0 -i 27 -k RTR 
- -t 55.218816189 -s 0 -d 1 -p tcp -e 1060 -c 2 -a 0 -i 27 -k RTR
h -t 55.218816189 -s 0 -d 1 -p tcp -e 1060 -c 2 -a 0 -i 27 -k RTR
+ -t 55.226494189 -s 2 -d -1 -p message -e 32 -c 2 -a 0 -i 28 -k RTR 
- -t 55.226494189 -s 2 -d -1 -p message -e 32 -c 2 -a 0 -i 28 -k RTR
h -t 55.226494189 -s 2 -d -1 -p message -e 32 -c 2 -a 0 -i 28 -k RTR
r -t 55.232017696 -s 0 -d 0 -p ack -e 80 -c 2 -a 0 -i 23 -k AGT
+ -t 55.232017696 -s 0 -d -1 -p tcp -e 1040 -c 2 -a 0 -i 29 -k AGT 
- -t 55.232017696 -s 0 -d -1 -p tcp -e 1040 -c 2 -a 0 -i 29 -k AGT
h -t 55.232017696 -s 0 -d -1 -p tcp -e 1040 -c 2 -a 0 -i 29 -k AGT
+ -t 55.232017696 -s 0 -d 1 -p tcp -e 1060 -c 2 -a 0 -i 29 -k RTR 
- -t 55.232017696 -s 0 -d 1 -p tcp -e 1060 -c 2 -a 0 -i 29 -k RTR
h -t 55.232017696 -s 0 -d 1 -p tcp -e 1060 -c 2 -a 0 -i 29 -k RTR
r -t 55.236968428 -s 1 -d -1 -p message -e 32 -c 2 -a 0 -i 28 -k RTR
r -t 55.236968433 -s 0 -d -1 -p message -e 32 -c 2 -a 0 -i 28 -k RTR
r -t 55.254844562 -s 0 -d 0 -p ack -e 60 -c 2 -a 0 -i 26 -k AGT
r -t 55.282032942 -s 1 -d 1 -p tcp -e 1060 -c 2 -a 0 -i 27 -k AGT
+ -t 55.282032942 -s 1 -d -1 -p ack -e 40 -c 2 -a 0 -i 30 -k AGT 
- -t 55.282032942 -s 1 -d -1 -p ack -e 40 -c 2 -a 0 -i 30 -k AGT
h -t 55.282032942 -s 1 -d -1 -p ack -e 40 -c 2 -a 0 -i 30 -k AGT
+ -t 55.282032942 -s 1 -d 0 -p ack -e 60 -c 2 -a 0 -i 30 -k RTR 
- -t 55.282032942 -s 1 -d 0 -p ack -e 60 -c 2 -a 0 -i 30 -k RTR
h -t 55.282032942 -s 1 -d 0 -p ack -e 60 -c 2 -a 0 -i 30 -k RTR
r -t 55.301809319 -s 0 -d 0 -p ack -e 60 -c 2 -a 0 -i 30 -k AGT
+ -t 55.301809319 -s 0 -d -1 -p tcp -e 1040 -c 2 -a 0 -i 31 -k AGT 
- -t 55.301809319 -s 0 -d -1 -p tcp -e 1040 -c 2 -a 0 -i 31 -k AGT
h -t 55.301809319 -s 0 -d -1 -p tcp -e 1040 -c 2 -a 0 -i 31 -k AGT
+ -t 55.301809319 -s 0 -d 1 -p tcp -e 1060 -c 2 -a 0 -i 31 -k RTR 
- -t 55.301809319 -s 0 -d 1 -p tcp -e 1060 -c 2 -a 0 -i 31 -k RTR
h -t 55.301809319 -s 0 -d 1 -p tcp -e 1060 -c 2 -a 0 -i 31 -k RTR
r -t 55.330343443 -s 1 -d 1 -p tcp -e 1060 -c 2 -a 0 -i 29 -k AGT
+ -t 55.330343443 -s 1 -d -1 -p ack -e 40 -c 2 -a 0 -i 32 -k AGT 
- -t 55.330343443 -s 1 -d -1 -p ack -e 40 -c 2 -a 0 -i 32 -k AGT
h -t 55.330343443 -s 1 -d -1 -p ack -e 40 -c 2 -a 0 -i 32 -k AGT
+ -t 55.330343443 -s 1 -d 0 -p ack -e 60 -c 2 -a 0 -i 32 -k RTR 
- -t 55.330343443 -s 1 -d 0 -p ack -e 60 -c 2 -a 0 -i 32 -k RTR
h -t 55.330343443 -s 1 -d 0 -p ack -e 60 -c 2 -a 0 -i 32 -k RTR
r -t 55.340490941 -s 1 -d 1 -p tcp -e 1060 -c 2 -a 0 -i 31 -k AGT
+ -t 55.340490941 -s 1 -d -1 -p ack -e 40 -c 2 -a 0 -i 33 -k AGT 
- -t 55.340490941 -s 1 -d -1 -p ack -e 40 -c 2 -a 0 -i 33 -k AGT
h -t 55.340490941 -s 1 -d -1 -p ack -e 40 -c 2 -a 0 -i 33 -k AGT
+ -t 55.340490941 -s 1 -d 0 -p ack -e 60 -c 2 -a 0 -i 33 -k RTR 
- -t 55.340490941 -s 1 -d 0 -p ack -e 60 -c 2 -a 0 -i 33 -k RTR
h -t 55.340490941 -s 1 -d 0 -p ack -e 60 -c 2 -a 0 -i 33 -k RTR
r -t 55.403189542 -s 0 -d 0 -p ack -e 60 -c 2 -a 0 -i 32 -k AGT
+ -t 55.403189542 -s 0 -d -1 -p tcp -e 1040 -c 2 -a 0 -i 34 -k AGT 
- -t 55.403189542 -s 0 -d -1 -p tcp -e 1040 -c 2 -a 0 -i 34 -k AGT
h -t 55.403189542 -s 0 -d -1 -p tcp -e 1040 -c 2 -a 0 -i 34 -k AGT
+ -t 55.403189542 -s 0 -d 1 -p tcp -e 1060 -c 2 -a 0 -i 34 -k RTR 
- -t 55.403189542 -s 0 -d 1 -p tcp -e 1060 -c 2 -a 0 -i 34 -k RTR
h -t 55.403189542 -s 0 -d 1 -p tcp -e 1060 -c 2 -a 0 -i 34 -k RTR
r -t 55.407603034 -s 0 -d 0 -p ack -e 60 -c 2 -a 0 -i 33 -k AGT
+ -t 55.407603034 -s 0 -d -1 -p tcp -e 1040 -c 2 -a 0 -i 35 -k AGT 
- -t 55.407603034 -s 0 -d -1 -p tcp -e 1040 -c 2 -a 0 -i 35 -k AGT
h -t 55.407603034 -s 0 -d -1 -p tcp -e 1040 -c 2 -a 0 -i 35 -k AGT
+ -t 55.407603034 -s 0 -d 1 -p tcp -e 1060 -c 2 -a 0 -i 35 -k RTR 
- -t 55.407603034 -s 0 -d 1 -p tcp -e 1060 -c 2 -a 0 -i 35 -k RTR
h -t 55.407603034 -s 0 -d 1 -p tcp -e 1060 -c 2 -a 0 -i 35 -k RTR
+ -t 55.407603034 -s 0 -d -1 -p tcp -e 1040 -c 2 -a 0 -i 36 -k AGT 
- -t 55.407603034 -s 0 -d -1 -p tcp -e 1040 -c 2 -a 0 -i 36 -k AGT
h -t 55.407603034 -s 0 -d -1 -p tcp -e 1040 -c 2 -a 0 -i 36 -k AGT
+ -t 55.407603034 -s 0 -d 1 -p tcp -e 1060 -c 2 -a 0 -i 36 -k RTR 
- -t 55.407603034 -s 0 -d 1 -p tcp -e 1060 -c 2 -a 0 -i 36 -k RTR
h -t 55.407603034 -s 0 -d 1 -p tcp -e 1060 -c 2 -a 0 -i 36 -k RTR
d -t 55.448203269 -s 0 -d 1 -p tcp -e 1060 -c 2 -a 0 -i 34 -k RTR
r -t 55.462180885 -s 1 -d 1 -p tcp -e 1060 -c 2 -a 0 -i 35 -k AGT
+ -t 55.462180885 -s 1 -d -1 -p ack -e 40 -c 2 -a 0 -i 37 -k AGT 
- -t 55.462180885 -s 1 -d -1 -p ack -e 40 -c 2 -a 0 -i 37 -k AGT
h -t 55.462180885 -s 1 -d -1 -p ack -e 40 -c 2 -a 0 -i 37 -k AGT
+ -t 55.462180885 -s 1 -d 0 -p ack -e 60 -c 2 -a 0 -i 37 -k RTR 
- -t 55.462180885 -s 1 -d 0 -p ack -e 60 -c 2 -a 0 -i 37 -k RTR
h -t 55.462180885 -s 1 -d 0 -p ack -e 60 -c 2 -a 0 -i 37 -k RTR
r -t 55.488691857 -s 1 -d 1 -p tcp -e 1060 -c 2 -a 0 -i 36 -k AGT
+ -t 55.488691857 -s 1 -d -1 -p ack -e 40 -c 2 -a 0 -i 38 -k AGT 
- -t 55.488691857 -s 1 -d -1 -p ack -e 40 -c 2 -a 0 -i 38 -k AGT
h -t 55.488691857 -s 1 -d -1 -p ack -e 40 -c 2 -a 0 -i 38 -k AGT
+ -t 55.488691857 -s 1 -d 0 -p ack -e 60 -c 2 -a 0 -i 38 -k RTR 
- -t 55.488691857 -s 1 -d 0 -p ack -e 60 -c 2 -a 0 -i 38 -k RTR
h -t 55.488691857 -s 1 -d 0 -p ack -e 60 -c 2 -a 0 -i 38 -k RTR
r -t 55.491438470 -s 0 -d 0 -p ack -e 60 -c 2 -a 0 -i 37 -k AGT
+ -t 55.491438470 -s 0 -d -1 -p tcp -e 1040 -c 2 -a 0 -i 39 -k AGT 
- -t 55.491438470 -s 0 -d -1 -p tcp -e 1040 -c 2 -a 0 -i 39 -k AGT
h -t 55.491438470 -s 0 -d -1 -p tcp -e 1040 -c 2 -a 0 -i 39 -k AGT
+ -t 55.491438470 -s 0 -d 1 -p tcp -e 1060 -c 2 -a 0 -i 39 -k RTR 
- -t 55.491438470 -s 0 -d 1 -p tcp -e 1060 -c 2 -a 0 -i 39 -k RTR
h -t 55.491438470 -s 0 -d 1 -p tcp -e 1060 -c 2 -a 0 -i 39 -k RTR
r -t 55.509581695 -s 0 -d 0 -p ack -e 60 -c 2 -a 0 -i 38 -k AGT
+ -t 55.509581695 -s 0 -d -1 -p tcp -e 1040 -c 2 -a 0 -i 40 -k AGT 
- -t 55.509581695 -s 0 -d -1 -p tcp -e 1040 -c 2 -a 0 -i 40 -k AGT
h -t 55.509581695 -s 0 -d -1 -p tcp -e 1040 -c 2 -a 0 -i 40 -k AGT
+ -t 55.509581695 -s 0 -d 1 -p tcp -e 1060 -c 2 -a 0 -i 40 -k RTR 
- -t 55.509581695 -s 0 -d 1 -p tcp -e 1060 -c 2 -a 0 -i 40 -k RTR
h -t 55.509581695 -s 0 -d 1 -p tcp -e 1060 -c 2 -a 0 -i 40 -k RTR
r -t 55.538669787 -s 1 -d 1 -p tcp -e 1060 -c 2 -a 0 -i 39 -k AGT
+ -t 55.538669787 -s 1 -d -1 -p ack -e 40 -c 2 -a 0 -i 41 -k AGT 
- -t 55.538669787 -s 1 -d -1 -p ack -e 40 -c 2 -a 0 -i 41 -k AGT
h -t 55.538669787 -s 1 -d -1 -p ack -e 40 -c 2 -a 0 -i 41 -k AGT
+ -t 55.538669787 -s 1 -d 0 -p ack -e 60 -c 2 -a 0 -i 41 -k RTR 
- -t 55.538669787 -s 1 -d 0 -p ack -e 60 -c 2 -a 0 -i 41 -k RTR
h -t 55.538669787 -s 1 -d 0 -p ack -e 60 -c 2 -a 0 -i 41 -k RTR
r -t 55.621383433 -s 1 -d 1 -p tcp -e 1060 -c 2 -a 0 -i 40 -k AGT
+ -t 55.621383433 -s 1 -d -1 -p ack -e 40 -c 2 -a 0 -i 42 -k AGT 
- -t 55.621383433 -s 1 -d -1 -p ack -e 40 -c 2 -a 0 -i 42 -k AGT
h -t 55.621383433 -s 1 -d -1 -p ack -e 40 -c 2 -a 0 -i 42 -k AGT
+ -t 55.621383433 -s 1 -d 0 -p ack -e 60 -c 2 -a 0 -i 42 -k RTR 
- -t 55.621383433 -s 1 -d 0 -p ack -e 60 -c 2 -a 0 -i 42 -k RTR
h -t 55.621383433 -s 1 -d 0 -p ack -e 60 -c 2 -a 0 -i 42 -k RTR
r -t 55.652131771 -s 0 -d 0 -p ack -e 60 -c 2 -a 0 -i 41 -k AGT
+ -t 55.652131771 -s 0 -d -1 -p tcp -e 1040 -c 2 -a 0 -i 43 -k AGT 
- -t 55.652131771 -s 0 -d -1 -p tcp -e 1040 -c 2 -a 0 -i 43 -k AGT
h -t 55.652131771 -s 0 -d -1 -p tcp -e 1040 -c 2 -a 0 -i 43 -k AGT
+ -t 55.652131771 -s 0 -d 1 -p tcp -e 1060 -c 2 -a 0 -i 43 -k RTR 
- -t 55.652131771 -s 0 -d 1 -p tcp -e 1060 -c 2 -a 0 -i 43 -k RTR
h -t 55.652131771 -s 0 -d 1 -p tcp -e 1060 -c 2 -a 0 -i 43 -k RTR
r -t 55.663298374 -s 1 -d 1 -p tcp -e 1060 -c 2 -a 0 -i 43 -k AGT
+ -t 55.663298374 -s 1 -d -1 -p ack -e 40 -c 2 -a 0 -i 44 -k AGT 
- -t 55.663298374 -s 1 -d -1 -p ack -e 40 -c 2 -a 0 -i 44 -k AGT
h -t 55.663298374 -s 1 -d -1 -p ack -e 40 -c 2 -a 0 -i 44 -k AGT
+ -t 55.663298374 -s 1 -d 0 -p ack -e 60 -c 2 -a 0 -i 44 -k RTR 
- -t 55.663298374 -s 1 -d 0 -p ack -e 60 -c 2 -a 0 -i 44 -k RTR
h -t 55.663298374 -s 1 -d 0 -p ack -e 60 -c 2 -a 0 -i 44 -k RTR
+ -t 55.668983855 -s 1 -d -1 -p message -e 44 -c 2 -a 0 -i 45 -k RTR 
- -t 55.668983855 -s 1 -d -1 -p message -e 44 -c 2 -a 0 -i 45 -k RTR
h -t 55.668983855 -s 1 -d -1 -p message -e 44 -c 2 -a 0 -i 45 -k RTR
r -t 55.733188048 -s 2 -d -1 -p message -e 44 -c 2 -a 0 -i 45 -k RTR
r -t 55.733188435 -s 0 -d -1 -p message -e 44 -c 2 -a 0 -i 45 -k RTR
r -t 55.735080167 -s 0 -d 0 -p ack -e 60 -c 2 -a 0 -i 42 -k AGT
r -t 55.740999092 -s 0 -d 0 -p ack -e 60 -c 2 -a 0 -i 44 -k AGT
+ -t 55.740999092 -s 0 -d -1 -p tcp -e 1040 -c 2 -a 0 -i 46 -k AGT 
- -t 55.740999092 -s 0 -d -1 -p tcp -e 1040 -c 2 -a 0 -i 46 -k AGT
h -t 55.740999092 -s 0 -d -1 -p tcp -e 1040 -c 2 -a 0 -i 46 -k AGT
+ -t 55.740999092 -s 0 -d 1 -p tcp -e 1060 -c 2 -a 0 -i 46 -k RTR 
- -t 55.740999092 -s 0 -d 1 -p tcp -e 1060 -c 2 -a 0 -i 46 -k RTR
h -t 55.740999092 -s 0 -d 1 -p tcp -e 1060 -c 2 -a 0 -i 46 -k RTR
+ -t 55.740999092 -s 0 -d -1 -p tcp -e 1040 -c 2 -a 0 -i 47 -k AGT 
- -t 55.740999092 -s 0 -d -1 -p tcp -e 1040 -c 2 -a 0 -i 47 -k AGT
h -t 55.740999092 -s 0 -d -1 -p tcp -e 1040 -c 2 -a 0 -i 47 -k AGT
+ -t 55.740999092 -s 0 -d 1 -p tcp -e 1060 -c 2 -a 0 -i 47 -k RTR 
- -t 55.740999092 -s 0 -d 1 -p tcp -e 1060 -c 2 -a 0 -i 47 -k RTR
h -t 55.740999092 -s 0 -d 1 -p tcp -e 1060 -c 2 -a 0 -i 47 -k RTR
r -t 55.798282608 -s 1 -d 1 -p tcp -e 1060 -c 2 -a 0 -i 46 -k AGT
+ -t 55.798282608 -s 1 -d -1 -p ack -e 40 -c 2 -a 0 -i 48 -k AGT 
- -t 55.798282608 -s 1 -d -1 -p ack -e 40 -c 2 -a 0 -i 48 -k AGT
h -t 55.798282608 -s 1 -d -1 -p ack -e 40 -c 2 -a 0 -i 48 -k AGT
+ -t 55.798282608 -s 1 -d 0 -p ack -e 60 -c 2 -a 0 -i 48 -k RTR 
- -t 55.798282608 -s 1 -d 0 -p ack -e 60 -c 2 -a 0 -i 48 -k RTR
h -t 55.798282608 -s 1 -d 0 -p ack -e 60 -c 2 -a 0 -i 48 -k RTR
r -t 55.881562741 -s 0 -d 0 -p ack -e 60 -c 2 -a 0 -i 48 -k AGT
+ -t 55.881562741 -s 0 -d -1 -p tcp -e 1040 -c 2 -a 0 -i 49 -k AGT 
- -t 55.881562741 -s 0 -d -1 -p tcp -e 1040 -c 2 -a 0 -i 49 -k AGT
h -t 55.881562741 -s 0 -d -1 -p tcp -e 1040 -c 2 -a 0 -i 49 -k AGT
+ -t 55.881562741 -s 0 -d 1 -p tcp -e 1060 -c 2 -a 0 -i 49 -k RTR 
- -t 55.881562741 -s 0 -d 1 -p tcp -e 1060 -c 2 -a 0 -i 49 -k RTR
h -t 55.881562741 -s 0 -d 1 -p tcp -e 1060 -c 2 -a 0 -i 49 -k RTR
+ -t 55.881562741 -s 0 -d -1 -p tcp -e 1040 -c 2 -a 0 -i 50 -k AGT 
- -t 55.881562741 -s 0 -d -1 -p tcp -e 1040 -c 2 -a 0 -i 50 -k AGT
h -t 55.881562741 -s 0 -d -1 -p tcp -e 1040 -c 2 -a 0 -i 50 -k AGT
+ -t 55.881562741 -s 0 -d 1 -p tcp -e 1060 -c 2 -a 0 -i 50 -k RTR 
- -t 55.881562741 -s 0 -d 1 -p tcp -e 1060 -c 2 -a 0 -i 50 -k RTR
h -t 55.881562741 -s 0 -d 1 -p tcp -e 1060 -c 2 -a 0 -i 50 -k RTR
d -t 55.897621466 -s 0 -d 1 -p tcp -e 1060 -c 2 -a 0 -i 46 -k RTR
r -t 55.925160776 -s 1 -d 1 -p tcp -e 1060 -c 2 -a 0 -i 47 -k AGT
+ -t 55.925160776 -s 1 -d -1 -p ack -e 40 -c 2 -a 0 -i 51 -k AGT 
- -t 55.925160776 -s 1 -d -1 -p ack -e 40 -c 2 -a 0 -i 51 -k AGT
h -t 55.925160776 -s 1 -d -1 -p ack -e 40 -c 2 -a 0 -i 51 -k AGT
+ -t 55.925160776 -s 1 -d 0 -p ack -e 60 -c 2 -a 0 -i 51 -k RTR 
- -t 55.925160776 -s 1 -d 0 -p ack -e 60 -c 2 -a 0 -i 51 -k RTR
h -t 55.925160776 -s 1 -d 0 -p ack -e 60 -c 2 -a 0 -i 51 -k RTR
r -t 55.945370805 -s 0 -d 0 -p ack -e 60 -c 2 -a 0 -i 51 -k AGT
+ -t 55.945370805 -s 0 -d -1 -p tcp -e 1040 -c 2 -a 0 -i 52 -k AGT 
- -t 55.945370805 -s 0 -d -1 -p tcp -e 1040 -c 2 -a 0 -i 52 -k AGT
h -t 55.945370805 -s 0 -d -1 -p tcp -e 1040 -c 2 -a 0 -i 52 -k AGT
+ -t 55.945370805 -s 0 -d 1 -p tcp -e 1060 -c 2 -a 0 -i 52 -k RTR 
- -t 55.945370805 -s 0 -d 1 -p tcp -e 1060 -c 2 -a 0 -i 52 -k RTR
h -t 55.945370805 -s 0 -d 1 -p tcp -e 1060 -c 2 -a 0 -i 52 -k RTR
r -t 56.023949148 -s 1 -d 1 -p tcp -e 1060 -c 2 -a 0 -i 49 -k AGT
+ -t 56.023949148 -s 1 -d -1 -p ack -e 40 -c 2 -a 0 -i 53 -k AGT 
- -t 56.023949148 -s 1 -d -1 -p ack -e 40 -c 2 -a 0 -i 53 -k AGT
h -t 56.023949148 -s 1 -d -1 -p ack -e 40 -c 2 -a 0 -i 53 -k AGT
+ -t 56.023949148 -s 1 -d 0 -p ack -e 60 -c 2 -a 0 -i 53 -k RTR 
- -t 56.023949148 -s 1 -d 0 -p ack -e 60 -c 2 -a 0 -i 53 -k RTR
h -t 56.023949148 -s 1 -d 0 -p ack -e 60 -c 2 -a 0 -i 53 -k RTR
d -t 56.032787867 -s 1 -d 0 -p ack -e 60 -c 2 -a 0 -i 51 -k RTR
r -t 56.036287163 -s 0 -d 0 -p ack -e 60 -c 2 -a 0 -i 53 -k AGT
+ -t 56.036287163 -s 0 -d -1 -p tcp -e 1040 -c 2 -a 0 -i 54 -k AGT 
- -t 56.036287163 -s 0 -d -1 -p tcp -e 1040 -c 2 -a 0 -i 54 -k AGT
h -t 56.036287163 -s 0 -d -1 -p tcp -e 1040 -c 2 -a 0 -i 54 -k AGT
+ -t 56.036287163 -s 0 -d 1 -p tcp -e 1060 -c 2 -a 0 -i 54 -k RTR 
- -t 56.036287163 -s 0 -d 1 -p tcp -e 1060 -c 2 -a 0 -i 54 -k RTR
h -t 56.036287163 -s 0 -d 1 -p tcp -e 1060 -c 2 -a 0 -i 54 -k RTR
d -t 56.095580749 -s 0 -d 1 -p tcp -e 1060 -c 2 -a 0 -i 49 -k RTR
r -t 56.106140039 -s 1 -d 1 -p tcp -e 1060 -c 2 -a 0 -i 50 -k AGT
+ -t 56.106140039 -s 1 -d -1 -p ack -e 40 -c 2 -a 0 -i 55 -k AGT 
- -t 56.106140039 -s 1 -d -1 -p ack -e 40 -c 2 -a 0 -i 55 -k AGT
h -t 56.106140039 -s 1 -d -1 -p ack -e 40 -c 2 -a 0 -i 55 -k AGT
+ -t 56.106140039 -s 1 -d 0 -p ack -e 60 -c 2 -a 0 -i 55 -k RTR 
- -t 56.106140039 -s 1 -d 0 -p ack -e 60 -c 2 -a 0 -i 55 -k RTR
h -t 56.106140039 -s 1 -d 0 -p ack -e 60 -c 2 -a 0 -i 55 -k RTR
r -t 56.116367469 -s 1 -d 1 -p tcp -e 1060 -c 2 -a 0 -i 52 -k AGT
+ -t 56.116367469 -s 1 -d -1 -p ack -e 40 -c 2 -a 0 -i 56 -k AGT 
- -t 56.116367469 -s 1 -d -1 -p ack -e 40 -c 2 -a 0 -i 56 -k AGT
h -t 56.116367469 -s 1 -d -1 -p ack -e 40 -c 2 -a 0 -i 56 -k AGT
+ -t 56.116367469 -s 1 -d 0 -p ack -e 60 -c 2 -a 0 -i 56 -k RTR 
- -t 56.116367469 -s 1 -d 0 -p ack -e 60 -c 2 -a 0 -i 56 -k RTR
h -t 56.116367469 -s 1 -d 0 -p ack -e 60 -c 2 -a 0 -i 56 -k RTR
r -t 56.138176612 -s 1 -d 1 -p tcp -e 1060 -c 2 -a 0 -i 54 -k AGT
+ -t 56.138176612 -s 1 -d -1 -p ack -e 40 -c 2 -a 0 -i 57 -k AGT 
- -t 56.138176612 -s 1 -d -1 -p ack -e 40 -c 2 -a 0 -i 57 -k AGT
h -t 56.138176612 -s 1 -d -1 -p ack -e 40 -c 2 -a 0 -i 57 -k AGT
+ -t 56.138176612 -s 1 -d 0 -p ack -e 60 -c 2 -a 0 -i 57 -k RTR 
- -t 56.138176612 -s 1 -d 0 -p ack -e 60 -c 2 -a 0 -i 57 -k RTR
h -t 56.138176612 -s 1 -d 0 -p ack -e 60 -c 2 -a 0 -i 57 -k RTR
r -t 56.196953168 -s 0 -d 0 -p ack -e 60 -c 2 -a 0 -i 55 -k AGT
+ -t 56.196953168 -s 0 -d -1 -p tcp -e 1040 -c 2 -a 0 -i 58 -k AGT 
- -t 56.196953168 -s 0 -d -1 -p tcp -e 1040 -c 2 -a 0 -i 58 -k AGT
h -t 56.196953168 -s 0 -d -1 -p tcp -e 1040 -c 2 -a 0 -i 58 -k AGT
+ -t 56.196953168 -s 0 -d 1 -p tcp -e 1060 -c 2 -a 0 -i 58 -k RTR 
- -t 56.196953168 -s 0 -d 1 -p tcp -e 1060 -c 2 -a 0 -i 58 -k RTR
h -t 56.196953168 -s 0 -d 1 -p tcp -e 1060 -c 2 -a 0 -i 58 -k RTR
r -t 56.203312013 -s 0 -d 0 -p ack -e 60 -c 2 -a 0 -i 56 -k AGT
+ -t 56.203312013 -s 0 -d -1 -p tcp -e 1040 -c 2 -a 0 -i 59 -k AGT 
- -t 56.203312013 -s 0 -d -1 -p tcp -e 1040 -c 2 -a 0 -i 59 -k AGT
h -t 56.203312013 -s 0 -d -1 -p tcp -e 1040 -c 2 -a 0 -i 59 -k AGT
+ -t 56.203312013 -s 0 -d 1 -p tcp -e 1060 -c 2 -a 0 -i 59 -k RTR 
- -t 56.203312013 -s 0 -d 1 -p tcp -e 1060 -c 2 -a 0 -i 59 -k RTR
h -t 56.203312013 -s 0 -d 1 -p tcp -e 1060 -c 2 -a 0 -i 59 -k RTR
+ -t 56.203312013 -s 0 -d -1 -p tcp -e 1040 -c 2 -a 0 -i 60 -k AGT 
- -t 56.203312013 -s 0 -d -1 -p tcp -e 1040 -c 2 -a 0 -i 60 -k AGT
h -t 56.203312013 -s 0 -d -1 -p tcp -e 1040 -c 2 -a 0 -i 60 -k AGT
+ -t 56.203312013 -s 0 -d 1 -p tcp -e 1060 -c 2 -a 0 -i 60 -k RTR 
- -t 56.203312013 -s 0 -d 1 -p tcp -e 1060 -c 2 -a 0 -i 60 -k RTR
h -t 56.203312013 -s 0 -d 1 -p tcp -e 1060 -c 2 -a 0 -i 60 -k RTR
r -t 56.242856563 -s 0 -d 0 -p ack -e 60 -c 2 -a 0 -i 57 -k AGT
+ -t 56.242856563 -s 0 -d -1 -p tcp -e 1040 -c 2 -a 0 -i 61 -k AGT 
- -t 56.242856563 -s 0 -d -1 -p tcp -e 1040 -c 2 -a 0 -i 61 -k AGT
h -t 56.242856563 -s 0 -d -1 -p tcp -e 1040 -c 2 -a 0 -i 61 -k AGT
+ -t 56.242856563 -s 0 -d 1 -p tcp -e 1060 -c 2 -a 0 -i 61 -k RTR 
- -t 56.242856563 -s 0 -d 1 -p tcp -e 1060 -c 2 -a 0 -i 61 -k RTR
h -t 56.242856563 -s 0 -d 1 -p tcp -e 1060 -c 2 -a 0 -i 61 -k RTR
d -t 56.252985563 -s 0 -d 1 -p tcp -e 1060 -c 2 -a 0 -i 54 -k RTR
r -t 56.275484835 -s 1 -d 1 -p tcp -e 1060 -c 2 -a 0 -i 58 -k AGT
+ -t 56.275484835 -s 1 -d -1 -p ack -e 40 -c 2 -a 0 -i 62 -k AGT 
- -t 56.275484835 -s 1 -d -1 -p ack -e 40 -c 2 -a 0 -i 62 -k AGT
h -t 56.275484835 -s 1 -d -1 -p ack -e 40 -c 2 -a 0 -i 62 -k AGT
+ -t 56.275484835 -s 1 -d 0 -p ack -e 60 -c 2 -a 0 -i 62 -k RTR 
- -t 56.275484835 -s 1 -d 0 -p ack -e 60 -c 2 -a 0 -i 62 -k RTR
h -t 56.275484835 -s 1 -d 0 -p ack -e 60 -c 2 -a 0 -i 62 -k RTR
r -t 56.296624518 -s 0 -d 0 -p ack -e 60 -c 2 -a 0 -i 62 -k AGT
+ -t 56.296624518 -s 0 -d -1 -p tcp -e 1040 -c 2 -a 0 -i 63 -k AGT 
- -t 56.296624518 -s 0 -d -1 -p tcp -e 1040 -c 2 -a 0 -i 63 -k AGT
h -t 56.296624518 -s 0 -d -1 -p tcp -e 1040 -c 2 -a 0 -i 63 -k AGT
+ -t 56.296624518 -s 0 -d 1 -p tcp -e 1060 -c 2 -a 0 -i 63 -k RTR 
- -t 56.296624518 -s 0 -d 1 -p tcp -e 1060 -c 2 -a 0 -i 63 -k RTR
h -t 56.296624518 -s 0 -d 1 -p tcp -e 1060 -c 2 -a 0 -i 63 -k RTR
r -t 56.364060780 -s 1 -d 1 -p tcp -e 1060 -c 2 -a 0 -i 59 -k AGT
+ -t 56.364060780 -s 1 -d -1 -p ack -e 40 -c 2 -a 0 -i 64 -k AGT 
- -t 56.364060780 -s 1 -d -1 -p ack -e 40 -c 2 -a 0 -i 64 -k AGT
h -t 56.364060780 -s 1 -d -1 -p ack -e 40 -c 2 -a 0 -i 64 -k AGT
+ -t 56.364060780 -s 1 -d 0 -p ack -e 60 -c 2 -a 0 -i 64 -k RTR 
- -t 56.364060780 -s 1 -d 0 -p ack -e 60 -c 2 -a 0 -i 64 -k RTR
h -t 56.364060780 -s 1 -d 0 -p ack -e 60 -c 2 -a 0 -i 64 -k RTR
r -t 56.366267336 -s 0 -d 0 -p ack -e 60 -c 2 -a 0 -i 64 -k AGT
+ -t 56.366267336 -s 0 -d -1 -p tcp -e 1040 -c 2 -a 0 -i 65 -k AGT 
- -t 56.366267336 -s 0 -d -1 -p tcp -e 1040 -c 2 -a 0 -i 65 -k AGT
h -t 56.366267336 -s 0 -d -1 -p tcp -e 1040 -c 2 -a 0 -i 65 -k AGT
+ -t 56.366267336 -s 0 -d 1 -p tcp -e 1060 -c 2 -a 0 -i 65 -k RTR 
- -t 56.366267336 -s 0 -d 1 -p tcp -e 1060 -c 2 -a 0 -i 65 -k RTR
h -t 56.366267336 -s 0 -d 1 -p tcp -e 1060 -c 2 -a 0 -i 65 -k RTR
r -t 56.400945298 -s 1 -d 1 -p tcp -e 1060 -c 2 -a 0 -i 60 -k AGT
+ -t 56.400945298 -s 1 -d -1 -p ack -e 40 -c 2 -a 0 -i 66 -k AGT 
- -t 56.400945298 -s 1 -d -1 -p ack -e 40 -c 2 -a 0 -i 66 -k AGT
h -t 56.400945298 -s 1 -d -1 -p ack -e 40 -c 2 -a 0 -i 66 -k AGT
+ -t 56.400945298 -s 1 -d 0 -p ack -e 60 -c 2 -a 0 -i 66 -k RTR 
- -t 56.400945298 -s 1 -d 0 -p ack -e 60 -c 2 -a 0 -i 66 -k RTR
h -t 56.400945298 -s 1 -d 0 -p ack -e 60 -c 2 -a 0 -i 66 -k RTR
r -t 56.404099554 -s 0 -d 0 -p ack -e 60 -c 2 -a 0 -i 66 -k AGT
+ -t 56.404099554 -s 0 -d -1 -p tcp -e 1040 -c 2 -a 0 -i 67 -k AGT 
- -t 56.404099554 -s 0 -d -1 -p tcp -e 1040 -c 2 -a 0 -i 67 -k AGT
h -t 56.404099554 -s 0 -d -1 -p tcp -e 1040 -c 2 -a 0 -i 67 -k AGT
+ -t 56.404099554 -s 0 -d 1 -p tcp -e 1060 -c 2 -a 0 -i 67 -k RTR 
- -t 56.404099554 -s 0 -d 1 -p tcp -e 1060 -c 2 -a 0 -i 67 -k RTR
h -t 56.404099554 -s 0 -d 1 -p tcp -e 1060 -c 2 -a 0 -i 67 -k RTR
+ -t 56.404099554 -s 0 -d -1 -p tcp -e 1040 -c 2 -a 0 -i 68 -k AGT 
- -t 56.404099554 -s 0 -d -1 -p tcp -e 1040 -c 2 -a 0 -i 68 -k AGT
h -t 56.404099554 -s 0 -d -1 -p tcp -e 1040 -c 2 -a 0 -i 68 -k AGT
+ -t 56.404099554 -s 0 -d 1 -p tcp -e 1060 -c 2 -a 0 -i 68 -k RTR 
- -t 56.404099554 -s 0 -d 1 -p tcp -e 1060 -c 2 -a 0 -i 68 -k RTR
h -t 56.404099554 -s 0 -d 1 -p tcp -e 1060 -c 2 -a 0 -i 68 -k RTR
r -t 56.437587808 -s 1 -d 1 -p tcp -e 1060 -c 2 -a 0 -i 61 -k AGT
+ -t 56.437587808 -s 1 -d -1 -p ack -e 40 -c 2 -a 0 -i 69 -k AGT 
- -t 56.437587808 -s 1 -d -1 -p ack -e 40 -c 2 -a 0 -i 69 -k AGT
h -t 56.437587808 -s 1 -d -1 -p ack -e 40 -c 2 -a 0 -i 69 -k AGT
+ -t 56.437587808 -s 1 -d 0 -p ack -e 60 -c 2 -a 0 -i 69 -k RTR 
- -t 56.437587808 -s 1 -d 0 -p ack -e 60 -c 2 -a 0 -i 69 -k RTR
h -t 56.437587808 -s 1 -d 0 -p ack -e 60 -c 2 -a 0 -i 69 -k RTR
r -t 56.441356060 -s 0 -d 0 -p ack -e 60 -c 2 -a 0 -i 69 -k AGT
+ -t 56.441356060 -s 0 -d -1 -p tcp -e 1040 -c 2 -a 0 -i 70 -k AGT 
- -t 56.441356060 -s 0 -d -1 -p tcp -e 1040 -c 2 -a 0 -i 70 -k AGT
h -t 56.441356060 -s 0 -d -1 -p tcp -e 1040 -c 2 -a 0 -i 70 -k AGT
+ -t 56.441356060 -s 0 -d 1 -p tcp -e 1060 -c 2 -a 0 -i 70 -k RTR 
- -t 56.441356060 -s 0 -d 1 -p tcp -e 1060 -c 2 -a 0 -i 70 -k RTR
h -t 56.441356060 -s 0 -d 1 -p tcp -e 1060 -c 2 -a 0 -i 70 -k RTR
r -t 56.472661410 -s 1 -d 1 -p tcp -e 1060 -c 2 -a 0 -i 63 -k AGT
+ -t 56.472661410 -s 1 -d -1 -p ack -e 40 -c 2 -a 0 -i 71 -k AGT 