Sconfig 0.00000 tap: on snoop: rts? on errs? on
Sconfig 0.00000 salvage: on !bd replies? on
Sconfig 0.00000 grat error: on grat reply: on
Sconfig 0.00000 $reply for props: on ring 0 search: on
Sconfig 0.00000 using MOBICACHE
s 0.000000000 _1_ AGT  --- 0 tcp 40 [0 0 0 0] ------- [1:2 0:3 32 0] [0 0] 0 0
r 0.000000000 _1_ RTR  --- 0 tcp 40 [0 0 0 0] ------- [1:2 0:3 32 0] [0 0] 0 0
s 0.003487410 _1_ RTR  --- 1 DSR 32 [0 0 0 0] ------- [1:255 0:255 32 0] 1 [1 1] [0 1 0 0->0] [0 0 0 0->0]
r 0.004527882 _3_ RTR  --- 1 DSR 32 [0 ffffffff 1 800] ------- [1:255 0:255 32 0] 1 [1 1] [0 1 0 0->0] [0 0 0 0->0]
r 0.004527882 _4_ RTR  --- 1 DSR 32 [0 ffffffff 1 800] ------- [1:255 0:255 32 0] 1 [1 1] [0 1 0 0->0] [0 0 0 0->0]
r 0.004528011 _0_ RTR  --- 1 DSR 32 [0 ffffffff 1 800] ------- [1:255 0:255 32 0] 1 [1 1] [0 1 0 0->0] [0 0 0 0->0]
r 0.004528080 _9_ RTR  --- 1 DSR 32 [0 ffffffff 1 800] ------- [1:255 0:255 32 0] 1 [1 1] [0 1 0 0->0] [0 0 0 0->0]
r 0.004528090 _8_ RTR  --- 1 DSR 32 [0 ffffffff 1 800] ------- [1:255 0:255 32 0] 1 [1 1] [0 1 0 0->0] [0 0 0 0->0]
r 0.004528264 _10_ RTR  --- 1 DSR 32 [0 ffffffff 1 800] ------- [1:255 0:255 32 0] 1 [1 1] [0 1 0 0->0] [0 0 0 0->0]
r 0.004528308 _5_ RTR  --- 1 DSR 32 [0 ffffffff 1 800] ------- [1:255 0:255 32 0] 1 [1 1] [0 1 0 0->0] [0 0 0 0->0]
r 0.004528353 _7_ RTR  --- 1 DSR 32 [0 ffffffff 1 800] ------- [1:255 0:255 32 0] 1 [1 1] [0 1 0 0->0] [0 0 0 0->0]
r 0.004528410 _2_ RTR  --- 1 DSR 32 [0 ffffffff 1 800] ------- [1:255 0:255 32 0] 1 [1 1] [0 1 0 0->0] [0 0 0 0->0]
s 0.009714499 _0_ RTR  --- 2 DSR 44 [0 0 0 0] ------- [0:255 1:255 254 1] 2 [0 1] [1 1 2 1->0] [0 0 0 0->0]
r 0.015181706 _1_ RTR  --- 2 DSR 44 [13a 1 0 800] ------- [0:255 1:255 254 1] 2 [0 1] [1 1 2 1->0] [0 0 0 0->0]
SFESTs 0.015181706 _1_ 0 [1 -> 0] 1(1) to 0 [1 |0 ]
s 0.015181706 _1_ RTR  --- 0 tcp 76 [0 0 0 0] ------- [1:2 0:3 32 0] [0 0] 0 0
r 0.017435508 _0_ RTR  --- 0 tcp 76 [13a 0 1 800] ------- [1:2 0:3 32 0] [0 0] 1 0
r 0.017435508 _0_ AGT  --- 0 tcp 40 [13a 0 1 800] ------- [1:2 0:3 32 0] [0 0] 1 0
s 0.017435508 _0_ AGT  --- 3 ack 40 [0 0 0 0] ------- [0:3 1:2 32 0] [0 0] 0 0
r 0.017435508 _0_ RTR  --- 3 ack 40 [0 0 0 0] ------- [0:3 1:2 32 0] [0 0] 0 0
SFESTs 0.017435508 _0_ 3 [0 -> 1] 1(1) to 1 [0 |1 ]
s 0.017435508 _0_ RTR  --- 3 ack 76 [0 0 0 0] ------- [0:3 1:2 32 1] [0 0] 0 0
r 0.019769311 _1_ RTR  --- 3 ack 76 [13a 1 0 800] ------- [0:3 1:2 32 1] [0 0] 1 0
r 0.019769311 _1_ AGT  --- 3 ack 40 [13a 1 0 800] ------- [0:3 1:2 32 1] [0 0] 1 0
s 0.019769311 _1_ AGT  --- 4 tcp 1040 [0 0 0 0] ------- [1:2 0:3 32 0] [1 0] 0 0
r 0.019769311 _1_ RTR  --- 4 tcp 1040 [0 0 0 0] ------- [1:2 0:3 32 0] [1 0] 0 0
SFESTs 0.019769311 _1_ 4 [1 -> 0] 1(1) to 0 [1 |0 ]
s 0.019769311 _1_ AGT  --- 5 tcp 1040 [0 0 0 0] ------- [1:2 0:3 32 0] [2 0] 0 0
r 0.019769311 _1_ RTR  --- 5 tcp 1040 [0 0 0 0] ------- [1:2 0:3 32 0] [2 0] 0 0
SFESTs 0.019769311 _1_ 5 [1 -> 0] 1(1) to 0 [1 |0 ]
s 0.019769311 _1_ RTR  --- 4 tcp 1076 [0 0 0 0] ------- [1:2 0:3 32 0] [1 0] 0 0
s 0.019769311 _1_ RTR  --- 5 tcp 1076 [0 0 0 0] ------- [1:2 0:3 32 0] [2 0] 0 0
r 0.030183114 _0_ RTR  --- 4 tcp 1076 [13a 0 1 800] ------- [1:2 0:3 32 0] [1 0] 1 0
r 0.030183114 _0_ AGT  --- 4 tcp 1040 [13a 0 1 800] ------- [1:2 0:3 32 0] [1 0] 1 0
s 0.030183114 _0_ AGT  --- 6 ack 40 [0 0 0 0] ------- [0:3 1:2 32 0] [1 0] 0 0
r 0.030183114 _0_ RTR  --- 6 ack 40 [0 0 0 0] ------- [0:3 1:2 32 0] [1 0] 0 0
SFESTs 0.030183114 _0_ 6 [0 -> 1] 1(1) to 1 [0 |1 ]
s 0.030183114 _0_ RTR  --- 6 ack 76 [0 0 0 0] ------- [0:3 1:2 32 1] [1 0] 0 0
r 0.032376917 _1_ RTR  --- 6 ack 76 [13a 1 0 800] ------- [0:3 1:2 32 1] [1 0] 1 0
r 0.032376917 _1_ AGT  --- 6 ack 40 [13a 1 0 800] ------- [0:3 1:2 32 1] [1 0] 1 0
s 0.032376917 _1_ AGT  --- 7 tcp 1040 [0 0 0 0] ------- [1:2 0:3 32 0] [3 0] 0 0
r 0.032376917 _1_ RTR  --- 7 tcp 1040 [0 0 0 0] ------- [1:2 0:3 32 0] [3 0] 0 0
SFs 0.032376917 _1_ 7 [1 -> 0] 1(0) to 0 
s 0.032376917 _1_ AGT  --- 8 tcp 1040 [0 0 0 0] ------- [1:2 0:3 32 0] [4 0] 0 0
r 0.032376917 _1_ RTR  --- 8 tcp 1040 [0 0 0 0] ------- [1:2 0:3 32 0] [4 0] 0 0
SFs 0.032376917 _1_ 8 [1 -> 0] 1(0) to 0 
s 0.032376917 _1_ RTR  --- 7 tcp 1060 [0 0 0 0] ------- [1:2 0:3 32 0] [3 0] 0 0
s 0.032376917 _1_ RTR  --- 8 tcp 1060 [0 0 0 0] ------- [1:2 0:3 32 0] [4 0] 0 0
r 0.042550719 _0_ RTR  --- 5 tcp 1076 [13a 0 1 800] ------- [1:2 0:3 32 0] [2 0] 1 0
r 0.042550719 _0_ AGT  --- 5 tcp 1040 [13a 0 1 800] ------- [1:2 0:3 32 0] [2 0] 1 0
s 0.042550719 _0_ AGT  --- 9 ack 40 [0 0 0 0] ------- [0:3 1:2 32 0] [2 0] 0 0
r 0.042550719 _0_ RTR  --- 9 ack 40 [0 0 0 0] ------- [0:3 1:2 32 0] [2 0] 0 0
SFESTs 0.042550719 _0_ 9 [0 -> 1] 1(1) to 1 [0 |1 ]
s 0.042550719 _0_ RTR  --- 9 ack 76 [0 0 0 0] ------- [0:3 1:2 32 1] [2 0] 0 0
r 0.052657123 _0_ RTR  --- 7 tcp 1060 [13a 0 1 800] ------- [1:2 0:3 32 0] [3 0] 1 0
r 0.052657123 _0_ AGT  --- 7 tcp 1040 [13a 0 1 800] ------- [1:2 0:3 32 0] [3 0] 1 0
s 0.052657123 _0_ AGT  --- 10 ack 40 [0 0 0 0] ------- [0:3 1:2 32 0] [3 0] 0 0
r 0.052657123 _0_ RTR  --- 10 ack 40 [0 0 0 0] ------- [0:3 1:2 32 0] [3 0] 0 0
SFs 0.052657123 _0_ 10 [0 -> 1] 1(0) to 1 
s 0.052657123 _0_ RTR  --- 10 ack 60 [0 0 0 0] ------- [0:3 1:2 32 1] [3 0] 0 0
r 0.054890926 _1_ RTR  --- 9 ack 76 [13a 1 0 800] ------- [0:3 1:2 32 1] [2 0] 1 0
r 0.054890926 _1_ AGT  --- 9 ack 40 [13a 1 0 800] ------- [0:3 1:2 32 1] [2 0] 1 0
s 0.054890926 _1_ AGT  --- 11 tcp 1040 [0 0 0 0] ------- [1:2 0:3 32 0] [5 0] 0 0
r 0.054890926 _1_ RTR  --- 11 tcp 1040 [0 0 0 0] ------- [1:2 0:3 32 0] [5 0] 0 0
SFs 0.054890926 _1_ 11 [1 -> 0] 1(0) to 0 
s 0.054890926 _1_ AGT  --- 12 tcp 1040 [0 0 0 0] ------- [1:2 0:3 32 0] [6 0] 0 0
r 0.054890926 _1_ RTR  --- 12 tcp 1040 [0 0 0 0] ------- [1:2 0:3 32 0] [6 0] 0 0
SFs 0.054890926 _1_ 12 [1 -> 0] 1(0) to 0 
s 0.054890926 _1_ RTR  --- 11 tcp 1060 [0 0 0 0] ------- [1:2 0:3 32 0] [5 0] 0 0
s 0.054890926 _1_ RTR  --- 12 tcp 1060 [0 0 0 0] ------- [1:2 0:3 32 0] [6 0] 0 0
r 0.056877330 _1_ RTR  --- 10 ack 60 [13a 1 0 800] ------- [0:3 1:2 32 1] [3 0] 1 0
r 0.056877330 _1_ AGT  --- 10 ack 40 [13a 1 0 800] ------- [0:3 1:2 32 1] [3 0] 1 0
s 0.056877330 _1_ AGT  --- 13 tcp 1040 [0 0 0 0] ------- [1:2 0:3 32 0] [7 0] 0 0
r 0.056877330 _1_ RTR  --- 13 tcp 1040 [0 0 0 0] ------- [1:2 0:3 32 0] [7 0] 0 0
SFs 0.056877330 _1_ 13 [1 -> 0] 1(0) to 0 
s 0.056877330 _1_ AGT  --- 14 tcp 1040 [0 0 0 0] ------- [1:2 0:3 32 0] [8 0] 0 0
r 0.056877330 _1_ RTR  --- 14 tcp 1040 [0 0 0 0] ------- [1:2 0:3 32 0] [8 0] 0 0
SFs 0.056877330 _1_ 14 [1 -> 0] 1(0) to 0 
s 0.056877330 _1_ RTR  --- 13 tcp 1060 [0 0 0 0] ------- [1:2 0:3 32 0] [7 0] 0 0
s 0.056877330 _1_ RTR  --- 14 tcp 1060 [0 0 0 0] ------- [1:2 0:3 32 0] [8 0] 0 0
r 0.067043132 _0_ RTR  --- 8 tcp 1060 [13a 0 1 800] ------- [1:2 0:3 32 0] [4 0] 1 0
r 0.067043132 _0_ AGT  --- 8 tcp 1040 [13a 0 1 800] ------- [1:2 0:3 32 0] [4 0] 1 0
s 0.067043132 _0_ AGT  --- 15 ack 40 [0 0 0 0] ------- [0:3 1:2 32 0] [4 0] 0 0
r 0.067043132 _0_ RTR  --- 15 ack 40 [0 0 0 0] ------- [0:3 1:2 32 0] [4 0] 0 0
SFs 0.067043132 _0_ 15 [0 -> 1] 1(0) to 1 
s 0.067043132 _0_ RTR  --- 15 ack 60 [0 0 0 0] ------- [0:3 1:2 32 1] [4 0] 0 0
r 0.070136137 _1_ RTR  --- 15 ack 60 [13a 1 0 800] ------- [0:3 1:2 32 1] [4 0] 1 0
r 0.070136137 _1_ AGT  --- 15 ack 40 [13a 1 0 800] ------- [0:3 1:2 32 1] [4 0] 1 0
s 0.070136137 _1_ AGT  --- 16 tcp 1040 [0 0 0 0] ------- [1:2 0:3 32 0] [9 0] 0 0
r 0.070136137 _1_ RTR  --- 16 tcp 1040 [0 0 0 0] ------- [1:2 0:3 32 0] [9 0] 0 0
SFs 0.070136137 _1_ 16 [1 -> 0] 1(0) to 0 
s 0.070136137 _1_ AGT  --- 17 tcp 1040 [0 0 0 0] ------- [1:2 0:3 32 0] [10 0] 0 0
r 0.070136137 _1_ RTR  --- 17 tcp 1040 [0 0 0 0] ------- [1:2 0:3 32 0] [10 0] 0 0
SFs 0.070136137 _1_ 17 [1 -> 0] 1(0) to 0 
s 0.070136137 _1_ RTR  --- 16 tcp 1060 [0 0 0 0] ------- [1:2 0:3 32 0] [9 0] 0 0
s 0.070136137 _1_ RTR  --- 17 tcp 1060 [0 0 0 0] ------- [1:2 0:3 32 0] [10 0] 0 0
r 0.080841940 _0_ RTR  --- 11 tcp 1060 [13a 0 1 800] ------- [1:2 0:3 32 0] [5 0] 1 0
r 0.080841940 _0_ AGT  --- 11 tcp 1040 [13a 0 1 800] ------- [1:2 0:3 32 0] [5 0] 1 0
s 0.080841940 _0_ AGT  --- 18 ack 40 [0 0 0 0] ------- [0:3 1:2 32 0] [5 0] 0 0
r 0.080841940 _0_ RTR  --- 18 ack 40 [0 0 0 0] ------- [0:3 1:2 32 0] [5 0] 0 0
SFs 0.080841940 _0_ 18 [0 -> 1] 1(0) to 1 
s 0.080841940 _0_ RTR  --- 18 ack 60 [0 0 0 0] ------- [0:3 1:2 32 1] [5 0] 0 0
r 0.091068344 _0_ RTR  --- 12 tcp 1060 [13a 0 1 800] ------- [1:2 0:3 32 0] [6 0] 1 0
r 0.091068344 _0_ AGT  --- 12 tcp 1040 [13a 0 1 800] ------- [1:2 0:3 32 0] [6 0] 1 0
s 0.091068344 _0_ AGT  --- 19 ack 40 [0 0 0 0] ------- [0:3 1:2 32 0] [6 0] 0 0
r 0.091068344 _0_ RTR  --- 19 ack 40 [0 0 0 0] ------- [0:3 1:2 32 0] [6 0] 0 0
SFs 0.091068344 _0_ 19 [0 -> 1] 1(0) to 1 
s 0.091068344 _0_ RTR  --- 19 ack 60 [0 0 0 0] ------- [0:3 1:2 32 1] [6 0] 0 0
r 0.093294146 _1_ RTR  --- 18 ack 60 [13a 1 0 800] ------- [0:3 1:2 32 1] [5 0] 1 0
r 0.093294146 _1_ AGT  --- 18 ack 40 [13a 1 0 800] ------- [0:3 1:2 32 1] [5 0] 1 0
s 0.093294146 _1_ AGT  --- 20 tcp 1040 [0 0 0 0] ------- [1:2 0:3 32 0] [11 0] 0 0
r 0.093294146 _1_ RTR  --- 20 tcp 1040 [0 0 0 0] ------- [1:2 0:3 32 0] [11 0] 0 0
SFs 0.093294146 _1_ 20 [1 -> 0] 1(0) to 0 
s 0.093294146 _1_ AGT  --- 21 tcp 1040 [0 0 0 0] ------- [1:2 0:3 32 0] [12 0] 0 0
r 0.093294146 _1_ RTR  --- 21 tcp 1040 [0 0 0 0] ------- [1:2 0:3 32 0] [12 0] 0 0
SFs 0.093294146 _1_ 21 [1 -> 0] 1(0) to 0 
s 0.093294146 _1_ RTR  --- 20 tcp 1060 [0 0 0 0] ------- [1:2 0:3 32 0] [11 0] 0 0
s 0.093294146 _1_ RTR  --- 21 tcp 1060 [0 0 0 0] ------- [1:2 0:3 32 0] [12 0] 0 0
r 0.103339949 _0_ RTR  --- 13 tcp 1060 [13a 0 1 800] ------- [1:2 0:3 32 0] [7 0] 1 0
r 0.103339949 _0_ AGT  --- 13 tcp 1040 [13a 0 1 800] ------- [1:2 0:3 32 0] [7 0] 1 0
s 0.103339949 _0_ AGT  --- 22 ack 40 [0 0 0 0] ------- [0:3 1:2 32 0] [7 0] 0 0
r 0.103339949 _0_ RTR  --- 22 ack 40 [0 0 0 0] ------- [0:3 1:2 32 0] [7 0] 0 0
SFs 0.103339949 _0_ 22 [0 -> 1] 1(0) to 1 
s 0.103339949 _0_ RTR  --- 22 ack 60 [0 0 0 0] ------- [0:3 1:2 32 1] [7 0] 0 0
r 0.105385752 _1_ RTR  --- 19 ack 60 [13a 1 0 800] ------- [0:3 1:2 32 1] [6 0] 1 0
r 0.105385752 _1_ AGT  --- 19 ack 40 [13a 1 0 800] ------- [0:3 1:2 32 1] [6 0] 1 0
s 0.105385752 _1_ AGT  --- 23 tcp 1040 [0 0 0 0] ------- [1:2 0:3 32 0] [13 0] 0 0
r 0.105385752 _1_ RTR  --- 23 tcp 1040 [0 0 0 0] ------- [1:2 0:3 32 0] [13 0] 0 0
SFs 0.105385752 _1_ 23 [1 -> 0] 1(0) to 0 
s 0.105385752 _1_ AGT  --- 24 tcp 1040 [0 0 0 0] ------- [1:2 0:3 32 0] [14 0] 0 0
r 0.105385752 _1_ RTR  --- 24 tcp 1040 [0 0 0 0] ------- [1:2 0:3 32 0] [14 0] 0 0
SFs 0.105385752 _1_ 24 [1 -> 0] 1(0) to 0 
s 0.105385752 _1_ RTR  --- 23 tcp 1060 [0 0 0 0] ------- [1:2 0:3 32 0] [13 0] 0 0
s 0.105385752 _1_ RTR  --- 24 tcp 1060 [0 0 0 0] ------- [1:2 0:3 32 0] [14 0] 0 0
r 0.107432156 _1_ RTR  --- 22 ack 60 [13a 1 0 800] ------- [0:3 1:2 32 1] [7 0] 1 0
r 0.107432156 _1_ AGT  --- 22 ack 40 [13a 1 0 800] ------- [0:3 1:2 32 1] [7 0] 1 0
s 0.107432156 _1_ AGT  --- 25 tcp 1040 [0 0 0 0] ------- [1:2 0:3 32 0] [15 0] 0 0
r 0.107432156 _1_ RTR  --- 25 tcp 1040 [0 0 0 0] ------- [1:2 0:3 32 0] [15 0] 0 0
SFs 0.107432156 _1_ 25 [1 -> 0] 1(0) to 0 
s 0.107432156 _1_ AGT  --- 26 tcp 1040 [0 0 0 0] ------- [1:2 0:3 32 0] [16 0] 0 0
r 0.107432156 _1_ RTR  --- 26 tcp 1040 [0 0 0 0] ------- [1:2 0:3 32 0] [16 0] 0 0
SFs 0.107432156 _1_ 26 [1 -> 0] 1(0) to 0 
s 0.107432156 _1_ RTR  --- 25 tcp 1060 [0 0 0 0] ------- [1:2 0:3 32 0] [15 0] 0 0
s 0.107432156 _1_ RTR  --- 26 tcp 1060 [0 0 0 0] ------- [1:2 0:3 32 0] [16 0] 0 0
r 0.117557958 _0_ RTR  --- 14 tcp 1060 [13a 0 1 800] ------- [1:2 0:3 32 0] [8 0] 1 0
r 0.117557958 _0_ AGT  --- 14 tcp 1040 [13a 0 1 800] ------- [1:2 0:3 32 0] [8 0] 1 0
s 0.117557958 _0_ AGT  --- 27 ack 40 [0 0 0 0] ------- [0:3 1:2 32 0] [8 0] 0 0
r 0.117557958 _0_ RTR  --- 27 ack 40 [0 0 0 0] ------- [0:3 1:2 32 0] [8 0] 0 0
SFs 0.117557958 _0_ 27 [0 -> 1] 1(0) to 1 
s 0.117557958 _0_ RTR  --- 27 ack 60 [0 0 0 0] ------- [0:3 1:2 32 1] [8 0] 0 0
r 0.127664362 _0_ RTR  --- 16 tcp 1060 [13a 0 1 800] ------- [1:2 0:3 32 0] [9 0] 1 0
r 0.127664362 _0_ AGT  --- 16 tcp 1040 [13a 0 1 800] ------- [1:2 0:3 32 0] [9 0] 1 0
s 0.127664362 _0_ AGT  --- 28 ack 40 [0 0 0 0] ------- [0:3 1:2 32 0] [9 0] 0 0
r 0.127664362 _0_ RTR  --- 28 ack 40 [0 0 0 0] ------- [0:3 1:2 32 0] [9 0] 0 0
SFs 0.127664362 _0_ 28 [0 -> 1] 1(0) to 1 
s 0.127664362 _0_ RTR  --- 28 ack 60 [0 0 0 0] ------- [0:3 1:2 32 1] [9 0] 0 0
r 0.137950766 _0_ RTR  --- 17 tcp 1060 [13a 0 1 800] ------- [1:2 0:3 32 0] [10 0] 1 0
r 0.137950766 _0_ AGT  --- 17 tcp 1040 [13a 0 1 800] ------- [1:2 0:3 32 0] [10 0] 1 0
s 0.137950766 _0_ AGT  --- 29 ack 40 [0 0 0 0] ------- [0:3 1:2 32 0] [10 0] 0 0
r 0.137950766 _0_ RTR  --- 29 ack 40 [0 0 0 0] ------- [0:3 1:2 32 0] [10 0] 0 0
SFs 0.137950766 _0_ 29 [0 -> 1] 1(0) to 1 
s 0.137950766 _0_ RTR  --- 29 ack 60 [0 0 0 0] ------- [0:3 1:2 32 1] [10 0] 0 0
r 0.139976569 _1_ RTR  --- 27 ack 60 [13a 1 0 800] ------- [0:3 1:2 32 1] [8 0] 1 0
r 0.139976569 _1_ AGT  --- 27 ack 40 [13a 1 0 800] ------- [0:3 1:2 32 1] [8 0] 1 0
s 0.139976569 _1_ AGT  --- 30 tcp 1040 [0 0 0 0] ------- [1:2 0:3 32 0] [17 0] 0 0
r 0.139976569 _1_ RTR  --- 30 tcp 1040 [0 0 0 0] ------- [1:2 0:3 32 0] [17 0] 0 0
SFs 0.139976569 _1_ 30 [1 -> 0] 1(0) to 0 
s 0.139976569 _1_ AGT  --- 31 tcp 1040 [0 0 0 0] ------- [1:2 0:3 32 0] [18 0] 0 0
r 0.139976569 _1_ RTR  --- 31 tcp 1040 [0 0 0 0] ------- [1:2 0:3 32 0] [18 0] 0 0
SFs 0.139976569 _1_ 31 [1 -> 0] 1(0) to 0 
s 0.139976569 _1_ RTR  --- 30 tcp 1060 [0 0 0 0] ------- [1:2 0:3 32 0] [17 0] 0 0
s 0.139976569 _1_ RTR  --- 31 tcp 1060 [0 0 0 0] ------- [1:2 0:3 32 0] [18 0] 0 0
r 0.142182972 _1_ RTR  --- 28 ack 60 [13a 1 0 800] ------- [0:3 1:2 32 1] [9 0] 1 0
r 0.142182972 _1_ AGT  --- 28 ack 40 [13a 1 0 800] ------- [0:3 1:2 32 1] [9 0] 1 0
s 0.142182972 _1_ AGT  --- 32 tcp 1040 [0 0 0 0] ------- [1:2 0:3 32 0] [19 0] 0 0
r 0.142182972 _1_ RTR  --- 32 tcp 1040 [0 0 0 0] ------- [1:2 0:3 32 0] [19 0] 0 0
SFs 0.142182972 _1_ 32 [1 -> 0] 1(0) to 0 
s 0.142182972 _1_ AGT  --- 33 tcp 1040 [0 0 0 0] ------- [1:2 0:3 32 0] [20 0] 0 0
r 0.142182972 _1_ RTR  --- 33 tcp 1040 [0 0 0 0] ------- [1:2 0:3 32 0] [20 0] 0 0
SFs 0.142182972 _1_ 33 [1 -> 0] 1(0) to 0 
s 0.142182972 _1_ RTR  --- 32 tcp 1060 [0 0 0 0] ------- [1:2 0:3 32 0] [19 0] 0 0
s 0.142182972 _1_ RTR  --- 33 tcp 1060 [0 0 0 0] ------- [1:2 0:3 32 0] [20 0] 0 0
r 0.152248775 _0_ RTR  --- 20 tcp 1060 [13a 0 1 800] ------- [1:2 0:3 32 0] [11 0] 1 0
r 0.152248775 _0_ AGT  --- 20 tcp 1040 [13a 0 1 800] ------- [1:2 0:3 32 0] [11 0] 1 0
s 0.152248775 _0_ AGT  --- 34 ack 40 [0 0 0 0] ------- [0:3 1:2 32 0] [11 0] 0 0
r 0.152248775 _0_ RTR  --- 34 ack 40 [0 0 0 0] ------- [0:3 1:2 32 0] [11 0] 0 0
SFs 0.152248775 _0_ 34 [0 -> 1] 1(0) to 1 
s 0.152248775 _0_ RTR  --- 34 ack 60 [0 0 0 0] ------- [0:3 1:2 32 1] [11 0] 0 0
r 0.154354578 _1_ RTR  --- 29 ack 60 [13a 1 0 800] ------- [0:3 1:2 32 1] [10 0] 1 0
r 0.154354578 _1_ AGT  --- 29 ack 40 [13a 1 0 800] ------- [0:3 1:2 32 1] [10 0] 1 0
s 0.154354578 _1_ AGT  --- 35 tcp 1040 [0 0 0 0] ------- [1:2 0:3 32 0] [21 0] 0 0
r 0.154354578 _1_ RTR  --- 35 tcp 1040 [0 0 0 0] ------- [1:2 0:3 32 0] [21 0] 0 0
SFs 0.154354578 _1_ 35 [1 -> 0] 1(0) to 0 
s 0.154354578 _1_ AGT  --- 36 tcp 1040 [0 0 0 0] ------- [1:2 0:3 32 0] [22 0] 0 0
r 0.154354578 _1_ RTR  --- 36 tcp 1040 [0 0 0 0] ------- [1:2 0:3 32 0] [22 0] 0 0
SFs 0.154354578 _1_ 36 [1 -> 0] 1(0) to 0 
s 0.154354578 _1_ RTR  --- 35 tcp 1060 [0 0 0 0] ------- [1:2 0:3 32 0] [21 0] 0 0
s 0.154354578 _1_ RTR  --- 36 tcp 1060 [0 0 0 0] ------- [1:2 0:3 32 0] [22 0] 0 0
r 0.156460981 _1_ RTR  --- 34 ack 60 [13a 1 0 800] ------- [0:3 1:2 32 1] [11 0] 1 0
r 0.156460981 _1_ AGT  --- 34 ack 40 [13a 1 0 800] ------- [0:3 1:2 32 1] [11 0] 1 0
s 0.156460981 _1_ AGT  --- 37 tcp 1040 [0 0 0 0] ------- [1:2 0:3 32 0] [23 0] 0 0
r 0.156460981 _1_ RTR  --- 37 tcp 1040 [0 0 0 0] ------- [1:2 0:3 32 0] [23 0] 0 0
SFs 0.156460981 _1_ 37 [1 -> 0] 1(0) to 0 
s 0.156460981 _1_ AGT  --- 38 tcp 1040 [0 0 0 0] ------- [1:2 0:3 32 0] [24 0] 0 0
r 0.156460981 _1_ RTR  --- 38 tcp 1040 [0 0 0 0] ------- [1:2 0:3 32 0] [24 0] 0 0
SFs 0.156460981 _1_ 38 [1 -> 0] 1(0) to 0 
s 0.156460981 _1_ RTR  --- 37 tcp 1060 [0 0 0 0] ------- [1:2 0:3 32 0] [23 0] 0 0
s 0.156460981 _1_ RTR  --- 38 tcp 1060 [0 0 0 0] ------- [1:2 0:3 32 0] [24 0] 0 0
r 0.166606784 _0_ RTR  --- 21 tcp 1060 [13a 0 1 800] ------- [1:2 0:3 32 0] [12 0] 1 0
r 0.166606784 _0_ AGT  --- 21 tcp 1040 [13a 0 1 800] ------- [1:2 0:3 32 0] [12 0] 1 0
s 0.166606784 _0_ AGT  --- 39 ack 40 [0 0 0 0] ------- [0:3 1:2 32 0] [12 0] 0 0
r 0.166606784 _0_ RTR  --- 39 ack 40 [0 0 0 0] ------- [0:3 1:2 32 0] [12 0] 0 0
SFs 0.166606784 _0_ 39 [0 -> 1] 1(0) to 1 
s 0.166606784 _0_ RTR  --- 39 ack 60 [0 0 0 0] ------- [0:3 1:2 32 1] [12 0] 0 0
r 0.168672587 _1_ RTR  --- 39 ack 60 [13a 1 0 800] ------- [0:3 1:2 32 1] [12 0] 1 0
r 0.168672587 _1_ AGT  --- 39 ack 40 [13a 1 0 800] ------- [0:3 1:2 32 1] [12 0] 1 0
s 0.168672587 _1_ AGT  --- 40 tcp 1040 [0 0 0 0] ------- [1:2 0:3 32 0] [25 0] 0 0
r 0.168672587 _1_ RTR  --- 40 tcp 1040 [0 0 0 0] ------- [1:2 0:3 32 0] [25 0] 0 0
SFs 0.168672587 _1_ 40 [1 -> 0] 1(0) to 0 
s 0.168672587 _1_ AGT  --- 41 tcp 1040 [0 0 0 0] ------- [1:2 0:3 32 0] [26 0] 0 0
r 0.168672587 _1_ RTR  --- 41 tcp 1040 [0 0 0 0] ------- [1:2 0:3 32 0] [26 0] 0 0
SFs 0.168672587 _1_ 41 [1 -> 0] 1(0) to 0 
s 0.168672587 _1_ RTR  --- 40 tcp 1060 [0 0 0 0] ------- [1:2 0:3 32 0] [25 0] 0 0
s 0.168672587 _1_ RTR  --- 41 tcp 1060 [0 0 0 0] ------- [1:2 0:3 32 0] [26 0] 0 0
r 0.179098390 _0_ RTR  --- 23 tcp 1060 [13a 0 1 800] ------- [1:2 0:3 32 0] [13 0] 1 0
r 0.179098390 _0_ AGT  --- 23 tcp 1040 [13a 0 1 800] ------- [1:2 0:3 32 0] [13 0] 1 0
s 0.179098390 _0_ AGT  --- 42 ack 40 [0 0 0 0] ------- [0:3 1:2 32 0] [13 0] 0 0
r 0.179098390 _0_ RTR  --- 42 ack 40 [0 0 0 0] ------- [0:3 1:2 32 0] [13 0] 0 0
SFs 0.179098390 _0_ 42 [0 -> 1] 1(0) to 1 
s 0.179098390 _0_ RTR  --- 42 ack 60 [0 0 0 0] ------- [0:3 1:2 32 1] [13 0] 0 0
r 0.189084794 _0_ RTR  --- 24 tcp 1060 [13a 0 1 800] ------- [1:2 0:3 32 0] [14 0] 1 0
r 0.189084794 _0_ AGT  --- 24 tcp 1040 [13a 0 1 800] ------- [1:2 0:3 32 0] [14 0] 1 0
s 0.189084794 _0_ AGT  --- 43 ack 40 [0 0 0 0] ------- [0:3 1:2 32 0] [14 0] 0 0
r 0.189084794 _0_ RTR  --- 43 ack 40 [0 0 0 0] ------- [0:3 1:2 32 0] [14 0] 0 0
SFs 0.189084794 _0_ 43 [0 -> 1] 1(0) to 1 
s 0.189084794 _0_ RTR  --- 43 ack 60 [0 0 0 0] ------- [0:3 1:2 32 1] [14 0] 0 0
r 0.191170596 _1_ RTR  --- 42 ack 60 [13a 1 0 800] ------- [0:3 1:2 32 1] [13 0] 1 0
r 0.191170596 _1_ AGT  --- 42 ack 40 [13a 1 0 800] ------- [0:3 1:2 32 1] [13 0] 1 0
s 0.191170596 _1_ AGT  --- 44 tcp 1040 [0 0 0 0] ------- [1:2 0:3 32 0] [27 0] 0 0
r 0.191170596 _1_ RTR  --- 44 tcp 1040 [0 0 0 0] ------- [1:2 0:3 32 0] [27 0] 0 0
SFs 0.191170596 _1_ 44 [1 -> 0] 1(0) to 0 
s 0.191170596 _1_ AGT  --- 45 tcp 1040 [0 0 0 0] ------- [1:2 0:3 32 0] [28 0] 0 0
r 0.191170596 _1_ RTR  --- 45 tcp 1040 [0 0 0 0] ------- [1:2 0:3 32 0] [28 0] 0 0
SFs 0.191170596 _1_ 45 [1 -> 0] 1(0) to 0 
s 0.191170596 _1_ RTR  --- 44 tcp 1060 [0 0 0 0] ------- [1:2 0:3 32 0] [27 0] 0 0
s 0.191170596 _1_ RTR  --- 45 tcp 1060 [0 0 0 0] ------- [1:2 0:3 32 0] [28 0] 0 0
r 0.193177000 _1_ RTR  --- 43 ack 60 [13a 1 0 800] ------- [0:3 1:2 32 1] [14 0] 1 0
r 0.193177000 _1_ AGT  --- 43 ack 40 [13a 1 0 800] ------- [0:3 1:2 32 1] [14 0] 1 0
s 0.193177000 _1_ AGT  --- 46 tcp 1040 [0 0 0 0] ------- [1:2 0:3 32 0] [29 0] 0 0
r 0.193177000 _1_ RTR  --- 46 tcp 1040 [0 0 0 0] ------- [1:2 0:3 32 0] [29 0] 0 0
SFs 0.193177000 _1_ 46 [1 -> 0] 1(0) to 0 
s 0.193177000 _1_ AGT  --- 47 tcp 1040 [0 0 0 0] ------- [1:2 0:3 32 0] [30 0] 0 0
r 0.193177000 _1_ RTR  --- 47 tcp 1040 [0 0 0 0] ------- [1:2 0:3 32 0] [30 0] 0 0
SFs 0.193177000 _1_ 47 [1 -> 0] 1(0) to 0 
s 0.193177000 _1_ RTR  --- 46 tcp 1060 [0 0 0 0] ------- [1:2 0:3 32 0] [29 0] 0 0
s 0.193177000 _1_ RTR  --- 47 tcp 1060 [0 0 0 0] ------- [1:2 0:3 32 0] [30 0] 0 0
M 0.20000 11 (0.00, 100.00, 0.00), (50.00, 190.00), 450.00
M 0.20000 12 (100.00, 100.00, 0.00), (50.00, 490.00), 450.00
M 0.20000 13 (200.00, 100.00, 0.00), (350.00, 490.00), 450.00
r 0.203462803 _0_ RTR  --- 25 tcp 1060 [13a 0 1 800] ------- [1:2 0:3 32 0] [15 0] 1 0
r 0.203462803 _0_ AGT  --- 25 tcp 1040 [13a 0 1 800] ------- [1:2 0:3 32 0] [15 0] 1 0
s 0.203462803 _0_ AGT  --- 48 ack 40 [0 0 0 0] ------- [0:3 1:2 32 0] [15 0] 0 0
r 0.203462803 _0_ RTR  --- 48 ack 40 [0 0 0 0] ------- [0:3 1:2 32 0] [15 0] 0 0
SFs 0.203462803 _0_ 48 [0 -> 1] 1(0) to 1 
s 0.203462803 _0_ RTR  --- 48 ack 60 [0 0 0 0] ------- [0:3 1:2 32 1] [15 0] 0 0
r 0.205828606 _1_ RTR  --- 48 ack 60 [13a 1 0 800] ------- [0:3 1:2 32 1] [15 0] 1 0
r 0.205828606 _1_ AGT  --- 48 ack 40 [13a 1 0 800] ------- [0:3 1:2 32 1] [15 0] 1 0
s 0.205828606 _1_ AGT  --- 49 tcp 1040 [0 0 0 0] ------- [1:2 0:3 32 0] [31 0] 0 0
r 0.205828606 _1_ RTR  --- 49 tcp 1040 [0 0 0 0] ------- [1:2 0:3 32 0] [31 0] 0 0
SFs 0.205828606 _1_ 49 [1 -> 0] 1(0) to 0 
s 0.205828606 _1_ AGT  --- 50 tcp 1040 [0 0 0 0] ------- [1:2 0:3 32 0] [32 0] 0 0
r 0.205828606 _1_ RTR  --- 50 tcp 1040 [0 0 0 0] ------- [1:2 0:3 32 0] [32 0] 0 0
SFs 0.205828606 _1_ 50 [1 -> 0] 1(0) to 0 
s 0.205828606 _1_ RTR  --- 49 tcp 1060 [0 0 0 0] ------- [1:2 0:3 32 0] [31 0] 0 0
s 0.205828606 _1_ RTR  --- 50 tcp 1060 [0 0 0 0] ------- [1:2 0:3 32 0] [32 0] 0 0
r 0.215874408 _0_ RTR  --- 26 tcp 1060 [13a 0 1 800] ------- [1:2 0:3 32 0] [16 0] 1 0
r 0.215874408 _0_ AGT  --- 26 tcp 1040 [13a 0 1 800] ------- [1:2 0:3 32 0] [16 0] 1 0
s 0.215874408 _0_ AGT  --- 51 ack 40 [0 0 0 0] ------- [0:3 1:2 32 0] [16 0] 0 0
r 0.215874408 _0_ RTR  --- 51 ack 40 [0 0 0 0] ------- [0:3 1:2 32 0] [16 0] 0 0
SFs 0.215874408 _0_ 51 [0 -> 1] 1(0) to 1 
s 0.215874408 _0_ RTR  --- 51 ack 60 [0 0 0 0] ------- [0:3 1:2 32 1] [16 0] 0 0
r 0.218280211 _1_ RTR  --- 51 ack 60 [13a 1 0 800] ------- [0:3 1:2 32 1] [16 0] 1 0
r 0.218280211 _1_ AGT  --- 51 ack 40 [13a 1 0 800] ------- [0:3 1:2 32 1] [16 0] 1 0
s 0.218280211 _1_ AGT  --- 52 tcp 1040 [0 0 0 0] ------- [1:2 0:3 32 0] [33 0] 0 0
r 0.218280211 _1_ RTR  --- 52 tcp 1040 [0 0 0 0] ------- [1:2 0:3 32 0] [33 0] 0 0
SFs 0.218280211 _1_ 52 [1 -> 0] 1(0) to 0 
s 0.218280211 _1_ AGT  --- 53 tcp 1040 [0 0 0 0] ------- [1:2 0:3 32 0] [34 0] 0 0
r 0.218280211 _1_ RTR  --- 53 tcp 1040 [0 0 0 0] ------- [1:2 0:3 32 0] [34 0] 0 0
SFs 0.218280211 _1_ 53 [1 -> 0] 1(0) to 0 
s 0.218280211 _1_ RTR  --- 52 tcp 1060 [0 0 0 0] ------- [1:2 0:3 32 0] [33 0] 0 0
s 0.218280211 _1_ RTR  --- 53 tcp 1060 [0 0 0 0] ------- [1:2 0:3 32 0] [34 0] 0 0
r 0.228386014 _0_ RTR  --- 30 tcp 1060 [13a 0 1 800] ------- [1:2 0:3 32 0] [17 0] 1 0
r 0.228386014 _0_ AGT  --- 30 tcp 1040 [13a 0 1 800] ------- [1:2 0:3 32 0] [17 0] 1 0
s 0.228386014 _0_ AGT  --- 54 ack 40 [0 0 0 0] ------- [0:3 1:2 32 0] [17 0] 0 0
r 0.228386014 _0_ RTR  --- 54 ack 40 [0 0 0 0] ------- [0:3 1:2 32 0] [17 0] 0 0
SFs 0.228386014 _0_ 54 [0 -> 1] 1(0) to 1 
s 0.228386014 _0_ RTR  --- 54 ack 60 [0 0 0 0] ------- [0:3 1:2 32 1] [17 0] 0 0
r 0.230391817 _1_ RTR  --- 54 ack 60 [13a 1 0 800] ------- [0:3 1:2 32 1] [17 0] 1 0
r 0.230391817 _1_ AGT  --- 54 ack 40 [13a 1 0 800] ------- [0:3 1:2 32 1] [17 0] 1 0
s 0.230391817 _1_ AGT  --- 55 tcp 1040 [0 0 0 0] ------- [1:2 0:3 32 0] [35 0] 0 0
r 0.230391817 _1_ RTR  --- 55 tcp 1040 [0 0 0 0] ------- [1:2 0:3 32 0] [35 0] 0 0
SFs 0.230391817 _1_ 55 [1 -> 0] 1(0) to 0 
s 0.230391817 _1_ AGT  --- 56 tcp 1040 [0 0 0 0] ------- [1:2 0:3 32 0] [36 0] 0 0
r 0.230391817 _1_ RTR  --- 56 tcp 1040 [0 0 0 0] ------- [1:2 0:3 32 0] [36 0] 0 0
SFs 0.230391817 _1_ 56 [1 -> 0] 1(0) to 0 
s 0.230391817 _1_ RTR  --- 55 tcp 1060 [0 0 0 0] ------- [1:2 0:3 32 0] [35 0] 0 0
s 0.230391817 _1_ RTR  --- 56 tcp 1060 [0 0 0 0] ------- [1:2 0:3 32 0] [36 0] 0 0
r 0.240957619 _0_ RTR  --- 31 tcp 1060 [13a 0 1 800] ------- [1:2 0:3 32 0] [18 0] 1 0
r 0.240957619 _0_ AGT  --- 31 tcp 1040 [13a 0 1 800] ------- [1:2 0:3 32 0] [18 0] 1 0
s 0.240957619 _0_ AGT  --- 57 ack 40 [0 0 0 0] ------- [0:3 1:2 32 0] [18 0] 0 0
r 0.240957619 _0_ RTR  --- 57 ack 40 [0 0 0 0] ------- [0:3 1:2 32 0] [18 0] 0 0
SFs 0.240957619 _0_ 57 [0 -> 1] 1(0) to 1 
s 0.240957619 _0_ RTR  --- 57 ack 60 [0 0 0 0] ------- [0:3 1:2 32 1] [18 0] 0 0
r 0.243183422 _1_ RTR  --- 57 ack 60 [13a 1 0 800] ------- [0:3 1:2 32 1] [18 0] 1 0
r 0.243183422 _1_ AGT  --- 57 ack 40 [13a 1 0 800] ------- [0:3 1:2 32 1] [18 0] 1 0
s 0.243183422 _1_ AGT  --- 58 tcp 1040 [0 0 0 0] ------- [1:2 0:3 32 0] [37 0] 0 0
r 0.243183422 _1_ RTR  --- 58 tcp 1040 [0 0 0 0] ------- [1:2 0:3 32 0] [37 0] 0 0
SFs 0.243183422 _1_ 58 [1 -> 0] 1(0) to 0 
s 0.243183422 _1_ AGT  --- 59 tcp 1040 [0 0 0 0] ------- [1:2 0:3 32 0] [38 0] 0 0
r 0.243183422 _1_ RTR  --- 59 tcp 1040 [0 0 0 0] ------- [1:2 0:3 32 0] [38 0] 0 0
SFs 0.243183422 _1_ 59 [1 -> 0] 1(0) to 0 
s 0.243183422 _1_ RTR  --- 58 tcp 1060 [0 0 0 0] ------- [1:2 0:3 32 0] [37 0] 0 0
s 0.243183422 _1_ RTR  --- 59 tcp 1060 [0 0 0 0] ------- [1:2 0:3 32 0] [38 0] 0 0
r 0.253449225 _0_ RTR  --- 32 tcp 1060 [13a 0 1 800] ------- [1:2 0:3 32 0] [19 0] 1 0
r 0.253449225 _0_ AGT  --- 32 tcp 1040 [13a 0 1 800] ------- [1:2 0:3 32 0] [19 0] 1 0
s 0.253449225 _0_ AGT  --- 60 ack 40 [0 0 0 0] ------- [0:3 1:2 32 0] [19 0] 0 0
r 0.253449225 _0_ RTR  --- 60 ack 40 [0 0 0 0] ------- [0:3 1:2 32 0] [19 0] 0 0
SFs 0.253449225 _0_ 60 [0 -> 1] 1(0) to 1 
s 0.253449225 _0_ RTR  --- 60 ack 60 [0 0 0 0] ------- [0:3 1:2 32 1] [19 0] 0 0
r 0.263435629 _0_ RTR  --- 33 tcp 1060 [13a 0 1 800] ------- [1:2 0:3 32 0] [20 0] 1 0
r 0.263435629 _0_ AGT  --- 33 tcp 1040 [13a 0 1 800] ------- [1:2 0:3 32 0] [20 0] 1 0
s 0.263435629 _0_ AGT  --- 61 ack 40 [0 0 0 0] ------- [0:3 1:2 32 0] [20 0] 0 0
r 0.263435629 _0_ RTR  --- 61 ack 40 [0 0 0 0] ------- [0:3 1:2 32 0] [20 0] 0 0
SFs 0.263435629 _0_ 61 [0 -> 1] 1(0) to 1 
s 0.263435629 _0_ RTR  --- 61 ack 60 [0 0 0 0] ------- [0:3 1:2 32 1] [20 0] 0 0
r 0.273582032 _0_ RTR  --- 35 tcp 1060 [13a 0 1 800] ------- [1:2 0:3 32 0] [21 0] 1 0
r 0.273582032 _0_ AGT  --- 35 tcp 1040 [13a 0 1 800] ------- [1:2 0:3 32 0] [21 0] 1 0
s 0.273582032 _0_ AGT  --- 62 ack 40 [0 0 0 0] ------- [0:3 1:2 32 0] [21 0] 0 0
r 0.273582032 _0_ RTR  --- 62 ack 40 [0 0 0 0] ------- [0:3 1:2 32 0] [21 0] 0 0
SFs 0.273582032 _0_ 62 [0 -> 1] 1(0) to 1 
s 0.273582032 _0_ RTR  --- 62 ack 60 [0 0 0 0] ------- [0:3 1:2 32 1] [21 0] 0 0
r 0.275647835 _1_ RTR  --- 60 ack 60 [13a 1 0 800] ------- [0:3 1:2 32 1] [19 0] 1 0
r 0.275647835 _1_ AGT  --- 60 ack 40 [13a 1 0 800] ------- [0:3 1:2 32 1] [19 0] 1 0
s 0.275647835 _1_ AGT  --- 63 tcp 1040 [0 0 0 0] ------- [1:2 0:3 32 0] [39 0] 0 0
r 0.275647835 _1_ RTR  --- 63 tcp 1040 [0 0 0 0] ------- [1:2 0:3 32 0] [39 0] 0 0
SFs 0.275647835 _1_ 63 [1 -> 0] 1(0) to 0 
s 0.275647835 _1_ RTR  --- 63 tcp 1060 [0 0 0 0] ------- [1:2 0:3 32 0] [39 0] 0 0
r 0.277674239 _1_ RTR  --- 61 ack 60 [13a 1 0 800] ------- [0:3 1:2 32 1] [20 0] 1 0
r 0.277674239 _1_ AGT  --- 61 ack 40 [13a 1 0 800] ------- [0:3 1:2 32 1] [20 0] 1 0
s 0.277674239 _1_ AGT  --- 64 tcp 1040 [0 0 0 0] ------- [1:2 0:3 32 0] [40 0] 0 0
r 0.277674239 _1_ RTR  --- 64 tcp 1040 [0 0 0 0] ------- [1:2 0:3 32 0] [40 0] 0 0
SFs 0.277674239 _1_ 64 [1 -> 0] 1(0) to 0 
s 0.277674239 _1_ RTR  --- 64 tcp 1060 [0 0 0 0] ------- [1:2 0:3 32 0] [40 0] 0 0
r 0.287680042 _0_ RTR  --- 36 tcp 1060 [13a 0 1 800] ------- [1:2 0:3 32 0] [22 0] 1 0
r 0.287680042 _0_ AGT  --- 36 tcp 1040 [13a 0 1 800] ------- [1:2 0:3 32 0] [22 0] 1 0
s 0.287680042 _0_ AGT  --- 65 ack 40 [0 0 0 0] ------- [0:3 1:2 32 0] [22 0] 0 0
r 0.287680042 _0_ RTR  --- 65 ack 40 [0 0 0 0] ------- [0:3 1:2 32 0] [22 0] 0 0
SFs 0.287680042 _0_ 65 [0 -> 1] 1(0) to 1 
s 0.287680042 _0_ RTR  --- 65 ack 60 [0 0 0 0] ------- [0:3 1:2 32 1] [22 0] 0 0
r 0.297966445 _0_ RTR  --- 37 tcp 1060 [13a 0 1 800] ------- [1:2 0:3 32 0] [23 0] 1 0
r 0.297966445 _0_ AGT  --- 37 tcp 1040 [13a 0 1 800] ------- [1:2 0:3 32 0] [23 0] 1 0
s 0.297966445 _0_ AGT  --- 66 ack 40 [0 0 0 0] ------- [0:3 1:2 32 0] [23 0] 0 0
r 0.297966445 _0_ RTR  --- 66 ack 40 [0 0 0 0] ------- [0:3 1:2 32 0] [23 0] 0 0
SFs 0.297966445 _0_ 66 [0 -> 1] 1(0) to 1 
s 0.297966445 _0_ RTR  --- 66 ack 60 [0 0 0 0] ------- [0:3 1:2 32 1] [23 0] 0 0
r 0.300112248 _1_ RTR  --- 62 ack 60 [13a 1 0 800] ------- [0:3 1:2 32 1] [21 0] 1 0
r 0.300112248 _1_ AGT  --- 62 ack 40 [13a 1 0 800] ------- [0:3 1:2 32 1] [21 0] 1 0
s 0.300112248 _1_ AGT  --- 67 tcp 1040 [0 0 0 0] ------- [1:2 0:3 32 0] [41 0] 0 0
r 0.300112248 _1_ RTR  --- 67 tcp 1040 [0 0 0 0] ------- [1:2 0:3 32 0] [41 0] 0 0
SFs 0.300112248 _1_ 67 [1 -> 0] 1(0) to 0 
s 0.300112248 _1_ RTR  --- 67 tcp 1060 [0 0 0 0] ------- [1:2 0:3 32 0] [41 0] 0 0
r 0.310278051 _0_ RTR  --- 38 tcp 1060 [13a 0 1 800] ------- [1:2 0:3 32 0] [24 0] 1 0
r 0.310278051 _0_ AGT  --- 38 tcp 1040 [13a 0 1 800] ------- [1:2 0:3 32 0] [24 0] 1 0
s 0.310278051 _0_ AGT  --- 68 ack 40 [0 0 0 0] ------- [0:3 1:2 32 0] [24 0] 0 0
r 0.310278051 _0_ RTR  --- 68 ack 40 [0 0 0 0] ------- [0:3 1:2 32 0] [24 0] 0 0
SFs 0.310278051 _0_ 68 [0 -> 1] 1(0) to 1 
s 0.310278051 _0_ RTR  --- 68 ack 60 [0 0 0 0] ------- [0:3 1:2 32 1] [24 0] 0 0
r 0.320264455 _0_ RTR  --- 40 tcp 1060 [13a 0 1 800] ------- [1:2 0:3 32 0] [25 0] 1 0
r 0.320264455 _0_ AGT  --- 40 tcp 1040 [13a 0 1 800] ------- [1:2 0:3 32 0] [25 0] 1 0
s 0.320264455 _0_ AGT  --- 69 ack 40 [0 0 0 0] ------- [0:3 1:2 32 0] [25 0] 0 0
r 0.320264455 _0_ RTR  --- 69 ack 40 [0 0 0 0] ------- [0:3 1:2 32 0] [25 0] 0 0
SFs 0.320264455 _0_ 69 [0 -> 1] 1(0) to 1 
s 0.320264455 _0_ RTR  --- 69 ack 60 [0 0 0 0] ------- [0:3 1:2 32 1] [25 0] 0 0
r 0.330310858 _0_ RTR  --- 41 tcp 1060 [13a 0 1 800] ------- [1:2 0:3 32 0] [26 0] 1 0
r 0.330310858 _0_ AGT  --- 41 tcp 1040 [13a 0 1 800] ------- [1:2 0:3 32 0] [26 0] 1 0
s 0.330310858 _0_ AGT  --- 70 ack 40 [0 0 0 0] ------- [0:3 1:2 32 0] [26 0] 0 0
r 0.330310858 _0_ RTR  --- 70 ack 40 [0 0 0 0] ------- [0:3 1:2 32 0] [26 0] 0 0