n -t * -s 0  -x 200 -y 700 -Z 0 -z 40.000000  -v circle -c black
n -t * -s 1  -x 50 -y 600 -Z 0 -z 30.000000  -v circle -c black
n -t * -s 2  -x 350 -y 600 -Z 0 -z 30.000000  -v circle -c black
n -t * -s 3  -x -50 -y 500 -Z 0 -z 40.000000  -v circle -c black
n -t * -s 4  -x 150 -y 500 -Z 0 -z 30.000000  -v circle -c black
n -t * -s 5  -x 300 -y 500 -Z 0 -z 30.000000  -v circle -c black
n -t * -s 6  -x 450 -y 500 -Z 0 -z 40.000000  -v circle -c black
n -t * -s 7  -x -150 -y 400 -Z 0 -z 40.000000  -v circle -c black
n -t * -s 8  -x 10 -y 400 -Z 0 -z 30.000000  -v circle -c black
n -t * -s 9  -x 70 -y 400 -Z 0 -z 40.000000  -v circle -c black
n -t * -s 10  -x 210 -y 400 -Z 0 -z 40.000000  -v circle -c black
n -t * -s 11  -x 0 -y 100 -Z 0 -z 40.000000  -v circle -c black
n -t * -s 12  -x 100 -y 100 -Z 0 -z 40.000000  -v circle -c black
n -t * -s 13  -x 200 -y 100 -Z 0 -z 40.000000  -v circle -c black
V -t * -v 1.0a5 -a 0
W -t * -x 950 -y 500
A -t * -n 1 -p 0 -o 0xffffffff -c 31 -a 1
A -t * -h 1 -m 2147483647 -s 0
c -t * -i 0 -n Brown
n -t 0 -s 0 -S DLABEL -l "MASTER1" -L ""
n -t 0 -s 5 -S DLABEL -l "SLAVEBRIDGE" -L ""
n -t 0 -s 10 -S DLABEL -l "MASTER2" -L ""
m -t 0 -s 11 -n m1 -c yellow -h circle
m -t 0 -s 11 -n m2 -c yellow -h circle
n -t 0 -s 11 -S DLABEL -l "OBJECT-0" -L ""
m -t 0 -s 12 -n m1 -c yellow -h circle
m -t 0 -s 12 -n m2 -c yellow -h circle
n -t 0 -s 12 -S DLABEL -l "OBJECT-1" -L ""
m -t 0 -s 13 -n m1 -c yellow -h circle
m -t 0 -s 13 -n m2 -c yellow -h circle
n -t 0 -s 13 -S DLABEL -l "OBJECT-2" -L ""
+ -t 0.000000000 -s 1 -d -1 -p tcp -e 40 -c 2 -a 0 -i 0 -k AGT 
- -t 0.000000000 -s 1 -d -1 -p tcp -e 40 -c 2 -a 0 -i 0 -k AGT
h -t 0.000000000 -s 1 -d -1 -p tcp -e 40 -c 2 -a 0 -i 0 -k AGT
+ -t 0.003487410 -s 1 -d -1 -p DSR -e 32 -c 2 -a 0 -i 1 -k RTR 
- -t 0.003487410 -s 1 -d -1 -p DSR -e 32 -c 2 -a 0 -i 1 -k RTR
h -t 0.003487410 -s 1 -d -1 -p DSR -e 32 -c 2 -a 0 -i 1 -k RTR
+ -t 0.009714499 -s 0 -d 1 -p DSR -e 44 -c 2 -a 0 -i 2 -k RTR 
- -t 0.009714499 -s 0 -d 1 -p DSR -e 44 -c 2 -a 0 -i 2 -k RTR
h -t 0.009714499 -s 0 -d 1 -p DSR -e 44 -c 2 -a 0 -i 2 -k RTR
+ -t 0.015181706 -s 1 -d 0 -p tcp -e 76 -c 2 -a 0 -i 0 -k RTR 
- -t 0.015181706 -s 1 -d 0 -p tcp -e 76 -c 2 -a 0 -i 0 -k RTR
h -t 0.015181706 -s 1 -d 0 -p tcp -e 76 -c 2 -a 0 -i 0 -k RTR
r -t 0.017435508 -s 0 -d 0 -p tcp -e 40 -c 2 -a 0 -i 0 -k AGT
+ -t 0.017435508 -s 0 -d -1 -p ack -e 40 -c 2 -a 0 -i 3 -k AGT 
- -t 0.017435508 -s 0 -d -1 -p ack -e 40 -c 2 -a 0 -i 3 -k AGT
h -t 0.017435508 -s 0 -d -1 -p ack -e 40 -c 2 -a 0 -i 3 -k AGT
+ -t 0.017435508 -s 0 -d 1 -p ack -e 76 -c 2 -a 0 -i 3 -k RTR 
- -t 0.017435508 -s 0 -d 1 -p ack -e 76 -c 2 -a 0 -i 3 -k RTR
h -t 0.017435508 -s 0 -d 1 -p ack -e 76 -c 2 -a 0 -i 3 -k RTR
r -t 0.019769311 -s 1 -d 1 -p ack -e 40 -c 2 -a 0 -i 3 -k AGT
+ -t 0.019769311 -s 1 -d -1 -p tcp -e 1040 -c 2 -a 0 -i 4 -k AGT 
- -t 0.019769311 -s 1 -d -1 -p tcp -e 1040 -c 2 -a 0 -i 4 -k AGT
h -t 0.019769311 -s 1 -d -1 -p tcp -e 1040 -c 2 -a 0 -i 4 -k AGT
+ -t 0.019769311 -s 1 -d -1 -p tcp -e 1040 -c 2 -a 0 -i 5 -k AGT 
- -t 0.019769311 -s 1 -d -1 -p tcp -e 1040 -c 2 -a 0 -i 5 -k AGT
h -t 0.019769311 -s 1 -d -1 -p tcp -e 1040 -c 2 -a 0 -i 5 -k AGT
+ -t 0.019769311 -s 1 -d 0 -p tcp -e 1076 -c 2 -a 0 -i 4 -k RTR 
- -t 0.019769311 -s 1 -d 0 -p tcp -e 1076 -c 2 -a 0 -i 4 -k RTR
h -t 0.019769311 -s 1 -d 0 -p tcp -e 1076 -c 2 -a 0 -i 4 -k RTR
+ -t 0.019769311 -s 1 -d 0 -p tcp -e 1076 -c 2 -a 0 -i 5 -k RTR 
- -t 0.019769311 -s 1 -d 0 -p tcp -e 1076 -c 2 -a 0 -i 5 -k RTR
h -t 0.019769311 -s 1 -d 0 -p tcp -e 1076 -c 2 -a 0 -i 5 -k RTR
r -t 0.030183114 -s 0 -d 0 -p tcp -e 1040 -c 2 -a 0 -i 4 -k AGT
+ -t 0.030183114 -s 0 -d -1 -p ack -e 40 -c 2 -a 0 -i 6 -k AGT 
- -t 0.030183114 -s 0 -d -1 -p ack -e 40 -c 2 -a 0 -i 6 -k AGT
h -t 0.030183114 -s 0 -d -1 -p ack -e 40 -c 2 -a 0 -i 6 -k AGT
+ -t 0.030183114 -s 0 -d 1 -p ack -e 76 -c 2 -a 0 -i 6 -k RTR 
- -t 0.030183114 -s 0 -d 1 -p ack -e 76 -c 2 -a 0 -i 6 -k RTR
h -t 0.030183114 -s 0 -d 1 -p ack -e 76 -c 2 -a 0 -i 6 -k RTR
r -t 0.032376917 -s 1 -d 1 -p ack -e 40 -c 2 -a 0 -i 6 -k AGT
+ -t 0.032376917 -s 1 -d -1 -p tcp -e 1040 -c 2 -a 0 -i 7 -k AGT 
- -t 0.032376917 -s 1 -d -1 -p tcp -e 1040 -c 2 -a 0 -i 7 -k AGT
h -t 0.032376917 -s 1 -d -1 -p tcp -e 1040 -c 2 -a 0 -i 7 -k AGT
+ -t 0.032376917 -s 1 -d -1 -p tcp -e 1040 -c 2 -a 0 -i 8 -k AGT 
- -t 0.032376917 -s 1 -d -1 -p tcp -e 1040 -c 2 -a 0 -i 8 -k AGT
h -t 0.032376917 -s 1 -d -1 -p tcp -e 1040 -c 2 -a 0 -i 8 -k AGT
+ -t 0.032376917 -s 1 -d 0 -p tcp -e 1060 -c 2 -a 0 -i 7 -k RTR 
- -t 0.032376917 -s 1 -d 0 -p tcp -e 1060 -c 2 -a 0 -i 7 -k RTR
h -t 0.032376917 -s 1 -d 0 -p tcp -e 1060 -c 2 -a 0 -i 7 -k RTR
+ -t 0.032376917 -s 1 -d 0 -p tcp -e 1060 -c 2 -a 0 -i 8 -k RTR 
- -t 0.032376917 -s 1 -d 0 -p tcp -e 1060 -c 2 -a 0 -i 8 -k RTR
h -t 0.032376917 -s 1 -d 0 -p tcp -e 1060 -c 2 -a 0 -i 8 -k RTR
r -t 0.042550719 -s 0 -d 0 -p tcp -e 1040 -c 2 -a 0 -i 5 -k AGT
+ -t 0.042550719 -s 0 -d -1 -p ack -e 40 -c 2 -a 0 -i 9 -k AGT 
- -t 0.042550719 -s 0 -d -1 -p ack -e 40 -c 2 -a 0 -i 9 -k AGT
h -t 0.042550719 -s 0 -d -1 -p ack -e 40 -c 2 -a 0 -i 9 -k AGT
+ -t 0.042550719 -s 0 -d 1 -p ack -e 76 -c 2 -a 0 -i 9 -k RTR 
- -t 0.042550719 -s 0 -d 1 -p ack -e 76 -c 2 -a 0 -i 9 -k RTR
h -t 0.042550719 -s 0 -d 1 -p ack -e 76 -c 2 -a 0 -i 9 -k RTR
r -t 0.052657123 -s 0 -d 0 -p tcp -e 1040 -c 2 -a 0 -i 7 -k AGT
+ -t 0.052657123 -s 0 -d -1 -p ack -e 40 -c 2 -a 0 -i 10 -k AGT 
- -t 0.052657123 -s 0 -d -1 -p ack -e 40 -c 2 -a 0 -i 10 -k AGT
h -t 0.052657123 -s 0 -d -1 -p ack -e 40 -c 2 -a 0 -i 10 -k AGT
+ -t 0.052657123 -s 0 -d 1 -p ack -e 60 -c 2 -a 0 -i 10 -k RTR 
- -t 0.052657123 -s 0 -d 1 -p ack -e 60 -c 2 -a 0 -i 10 -k RTR
h -t 0.052657123 -s 0 -d 1 -p ack -e 60 -c 2 -a 0 -i 10 -k RTR
r -t 0.054890926 -s 1 -d 1 -p ack -e 40 -c 2 -a 0 -i 9 -k AGT
+ -t 0.054890926 -s 1 -d -1 -p tcp -e 1040 -c 2 -a 0 -i 11 -k AGT 
- -t 0.054890926 -s 1 -d -1 -p tcp -e 1040 -c 2 -a 0 -i 11 -k AGT
h -t 0.054890926 -s 1 -d -1 -p tcp -e 1040 -c 2 -a 0 -i 11 -k AGT
+ -t 0.054890926 -s 1 -d -1 -p tcp -e 1040 -c 2 -a 0 -i 12 -k AGT 
- -t 0.054890926 -s 1 -d -1 -p tcp -e 1040 -c 2 -a 0 -i 12 -k AGT
h -t 0.054890926 -s 1 -d -1 -p tcp -e 1040 -c 2 -a 0 -i 12 -k AGT
+ -t 0.054890926 -s 1 -d 0 -p tcp -e 1060 -c 2 -a 0 -i 11 -k RTR 
- -t 0.054890926 -s 1 -d 0 -p tcp -e 1060 -c 2 -a 0 -i 11 -k RTR
h -t 0.054890926 -s 1 -d 0 -p tcp -e 1060 -c 2 -a 0 -i 11 -k RTR
+ -t 0.054890926 -s 1 -d 0 -p tcp -e 1060 -c 2 -a 0 -i 12 -k RTR 
- -t 0.054890926 -s 1 -d 0 -p tcp -e 1060 -c 2 -a 0 -i 12 -k RTR
h -t 0.054890926 -s 1 -d 0 -p tcp -e 1060 -c 2 -a 0 -i 12 -k RTR
r -t 0.056877330 -s 1 -d 1 -p ack -e 40 -c 2 -a 0 -i 10 -k AGT
+ -t 0.056877330 -s 1 -d -1 -p tcp -e 1040 -c 2 -a 0 -i 13 -k AGT 
- -t 0.056877330 -s 1 -d -1 -p tcp -e 1040 -c 2 -a 0 -i 13 -k AGT
h -t 0.056877330 -s 1 -d -1 -p tcp -e 1040 -c 2 -a 0 -i 13 -k AGT
+ -t 0.056877330 -s 1 -d -1 -p tcp -e 1040 -c 2 -a 0 -i 14 -k AGT 
- -t 0.056877330 -s 1 -d -1 -p tcp -e 1040 -c 2 -a 0 -i 14 -k AGT
h -t 0.056877330 -s 1 -d -1 -p tcp -e 1040 -c 2 -a 0 -i 14 -k AGT
+ -t 0.056877330 -s 1 -d 0 -p tcp -e 1060 -c 2 -a 0 -i 13 -k RTR 
- -t 0.056877330 -s 1 -d 0 -p tcp -e 1060 -c 2 -a 0 -i 13 -k RTR
h -t 0.056877330 -s 1 -d 0 -p tcp -e 1060 -c 2 -a 0 -i 13 -k RTR
+ -t 0.056877330 -s 1 -d 0 -p tcp -e 1060 -c 2 -a 0 -i 14 -k RTR 
- -t 0.056877330 -s 1 -d 0 -p tcp -e 1060 -c 2 -a 0 -i 14 -k RTR
h -t 0.056877330 -s 1 -d 0 -p tcp -e 1060 -c 2 -a 0 -i 14 -k RTR
r -t 0.067043132 -s 0 -d 0 -p tcp -e 1040 -c 2 -a 0 -i 8 -k AGT
+ -t 0.067043132 -s 0 -d -1 -p ack -e 40 -c 2 -a 0 -i 15 -k AGT 
- -t 0.067043132 -s 0 -d -1 -p ack -e 40 -c 2 -a 0 -i 15 -k AGT
h -t 0.067043132 -s 0 -d -1 -p ack -e 40 -c 2 -a 0 -i 15 -k AGT
+ -t 0.067043132 -s 0 -d 1 -p ack -e 60 -c 2 -a 0 -i 15 -k RTR 
- -t 0.067043132 -s 0 -d 1 -p ack -e 60 -c 2 -a 0 -i 15 -k RTR
h -t 0.067043132 -s 0 -d 1 -p ack -e 60 -c 2 -a 0 -i 15 -k RTR
r -t 0.070136137 -s 1 -d 1 -p ack -e 40 -c 2 -a 0 -i 15 -k AGT
+ -t 0.070136137 -s 1 -d -1 -p tcp -e 1040 -c 2 -a 0 -i 16 -k AGT 
- -t 0.070136137 -s 1 -d -1 -p tcp -e 1040 -c 2 -a 0 -i 16 -k AGT
h -t 0.070136137 -s 1 -d -1 -p tcp -e 1040 -c 2 -a 0 -i 16 -k AGT
+ -t 0.070136137 -s 1 -d -1 -p tcp -e 1040 -c 2 -a 0 -i 17 -k AGT 
- -t 0.070136137 -s 1 -d -1 -p tcp -e 1040 -c 2 -a 0 -i 17 -k AGT
h -t 0.070136137 -s 1 -d -1 -p tcp -e 1040 -c 2 -a 0 -i 17 -k AGT
+ -t 0.070136137 -s 1 -d 0 -p tcp -e 1060 -c 2 -a 0 -i 16 -k RTR 
- -t 0.070136137 -s 1 -d 0 -p tcp -e 1060 -c 2 -a 0 -i 16 -k RTR
h -t 0.070136137 -s 1 -d 0 -p tcp -e 1060 -c 2 -a 0 -i 16 -k RTR
+ -t 0.070136137 -s 1 -d 0 -p tcp -e 1060 -c 2 -a 0 -i 17 -k RTR 
- -t 0.070136137 -s 1 -d 0 -p tcp -e 1060 -c 2 -a 0 -i 17 -k RTR
h -t 0.070136137 -s 1 -d 0 -p tcp -e 1060 -c 2 -a 0 -i 17 -k RTR
r -t 0.080841940 -s 0 -d 0 -p tcp -e 1040 -c 2 -a 0 -i 11 -k AGT
+ -t 0.080841940 -s 0 -d -1 -p ack -e 40 -c 2 -a 0 -i 18 -k AGT 
- -t 0.080841940 -s 0 -d -1 -p ack -e 40 -c 2 -a 0 -i 18 -k AGT
h -t 0.080841940 -s 0 -d -1 -p ack -e 40 -c 2 -a 0 -i 18 -k AGT
+ -t 0.080841940 -s 0 -d 1 -p ack -e 60 -c 2 -a 0 -i 18 -k RTR 
- -t 0.080841940 -s 0 -d 1 -p ack -e 60 -c 2 -a 0 -i 18 -k RTR
h -t 0.080841940 -s 0 -d 1 -p ack -e 60 -c 2 -a 0 -i 18 -k RTR
r -t 0.091068344 -s 0 -d 0 -p tcp -e 1040 -c 2 -a 0 -i 12 -k AGT
+ -t 0.091068344 -s 0 -d -1 -p ack -e 40 -c 2 -a 0 -i 19 -k AGT 
- -t 0.091068344 -s 0 -d -1 -p ack -e 40 -c 2 -a 0 -i 19 -k AGT
h -t 0.091068344 -s 0 -d -1 -p ack -e 40 -c 2 -a 0 -i 19 -k AGT
+ -t 0.091068344 -s 0 -d 1 -p ack -e 60 -c 2 -a 0 -i 19 -k RTR 
- -t 0.091068344 -s 0 -d 1 -p ack -e 60 -c 2 -a 0 -i 19 -k RTR
h -t 0.091068344 -s 0 -d 1 -p ack -e 60 -c 2 -a 0 -i 19 -k RTR
r -t 0.093294146 -s 1 -d 1 -p ack -e 40 -c 2 -a 0 -i 18 -k AGT
+ -t 0.093294146 -s 1 -d -1 -p tcp -e 1040 -c 2 -a 0 -i 20 -k AGT 
- -t 0.093294146 -s 1 -d -1 -p tcp -e 1040 -c 2 -a 0 -i 20 -k AGT
h -t 0.093294146 -s 1 -d -1 -p tcp -e 1040 -c 2 -a 0 -i 20 -k AGT
+ -t 0.093294146 -s 1 -d -1 -p tcp -e 1040 -c 2 -a 0 -i 21 -k AGT 
- -t 0.093294146 -s 1 -d -1 -p tcp -e 1040 -c 2 -a 0 -i 21 -k AGT
h -t 0.093294146 -s 1 -d -1 -p tcp -e 1040 -c 2 -a 0 -i 21 -k AGT
+ -t 0.093294146 -s 1 -d 0 -p tcp -e 1060 -c 2 -a 0 -i 20 -k RTR 
- -t 0.093294146 -s 1 -d 0 -p tcp -e 1060 -c 2 -a 0 -i 20 -k RTR
h -t 0.093294146 -s 1 -d 0 -p tcp -e 1060 -c 2 -a 0 -i 20 -k RTR
+ -t 0.093294146 -s 1 -d 0 -p tcp -e 1060 -c 2 -a 0 -i 21 -k RTR 
- -t 0.093294146 -s 1 -d 0 -p tcp -e 1060 -c 2 -a 0 -i 21 -k RTR
h -t 0.093294146 -s 1 -d 0 -p tcp -e 1060 -c 2 -a 0 -i 21 -k RTR
r -t 0.103339949 -s 0 -d 0 -p tcp -e 1040 -c 2 -a 0 -i 13 -k AGT
+ -t 0.103339949 -s 0 -d -1 -p ack -e 40 -c 2 -a 0 -i 22 -k AGT 
- -t 0.103339949 -s 0 -d -1 -p ack -e 40 -c 2 -a 0 -i 22 -k AGT
h -t 0.103339949 -s 0 -d -1 -p ack -e 40 -c 2 -a 0 -i 22 -k AGT
+ -t 0.103339949 -s 0 -d 1 -p ack -e 60 -c 2 -a 0 -i 22 -k RTR 
- -t 0.103339949 -s 0 -d 1 -p ack -e 60 -c 2 -a 0 -i 22 -k RTR
h -t 0.103339949 -s 0 -d 1 -p ack -e 60 -c 2 -a 0 -i 22 -k RTR
r -t 0.105385752 -s 1 -d 1 -p ack -e 40 -c 2 -a 0 -i 19 -k AGT
+ -t 0.105385752 -s 1 -d -1 -p tcp -e 1040 -c 2 -a 0 -i 23 -k AGT 
- -t 0.105385752 -s 1 -d -1 -p tcp -e 1040 -c 2 -a 0 -i 23 -k AGT
h -t 0.105385752 -s 1 -d -1 -p tcp -e 1040 -c 2 -a 0 -i 23 -k AGT
+ -t 0.105385752 -s 1 -d -1 -p tcp -e 1040 -c 2 -a 0 -i 24 -k AGT 
- -t 0.105385752 -s 1 -d -1 -p tcp -e 1040 -c 2 -a 0 -i 24 -k AGT
h -t 0.105385752 -s 1 -d -1 -p tcp -e 1040 -c 2 -a 0 -i 24 -k AGT
+ -t 0.105385752 -s 1 -d 0 -p tcp -e 1060 -c 2 -a 0 -i 23 -k RTR 
- -t 0.105385752 -s 1 -d 0 -p tcp -e 1060 -c 2 -a 0 -i 23 -k RTR
h -t 0.105385752 -s 1 -d 0 -p tcp -e 1060 -c 2 -a 0 -i 23 -k RTR
+ -t 0.105385752 -s 1 -d 0 -p tcp -e 1060 -c 2 -a 0 -i 24 -k RTR 
- -t 0.105385752 -s 1 -d 0 -p tcp -e 1060 -c 2 -a 0 -i 24 -k RTR
h -t 0.105385752 -s 1 -d 0 -p tcp -e 1060 -c 2 -a 0 -i 24 -k RTR
r -t 0.107432156 -s 1 -d 1 -p ack -e 40 -c 2 -a 0 -i 22 -k AGT
+ -t 0.107432156 -s 1 -d -1 -p tcp -e 1040 -c 2 -a 0 -i 25 -k AGT 
- -t 0.107432156 -s 1 -d -1 -p tcp -e 1040 -c 2 -a 0 -i 25 -k AGT
h -t 0.107432156 -s 1 -d -1 -p tcp -e 1040 -c 2 -a 0 -i 25 -k AGT
+ -t 0.107432156 -s 1 -d -1 -p tcp -e 1040 -c 2 -a 0 -i 26 -k AGT 
- -t 0.107432156 -s 1 -d -1 -p tcp -e 1040 -c 2 -a 0 -i 26 -k AGT
h -t 0.107432156 -s 1 -d -1 -p tcp -e 1040 -c 2 -a 0 -i 26 -k AGT
+ -t 0.107432156 -s 1 -d 0 -p tcp -e 1060 -c 2 -a 0 -i 25 -k RTR 
- -t 0.107432156 -s 1 -d 0 -p tcp -e 1060 -c 2 -a 0 -i 25 -k RTR
h -t 0.107432156 -s 1 -d 0 -p tcp -e 1060 -c 2 -a 0 -i 25 -k RTR
+ -t 0.107432156 -s 1 -d 0 -p tcp -e 1060 -c 2 -a 0 -i 26 -k RTR 
- -t 0.107432156 -s 1 -d 0 -p tcp -e 1060 -c 2 -a 0 -i 26 -k RTR
h -t 0.107432156 -s 1 -d 0 -p tcp -e 1060 -c 2 -a 0 -i 26 -k RTR
r -t 0.117557958 -s 0 -d 0 -p tcp -e 1040 -c 2 -a 0 -i 14 -k AGT
+ -t 0.117557958 -s 0 -d -1 -p ack -e 40 -c 2 -a 0 -i 27 -k AGT 
- -t 0.117557958 -s 0 -d -1 -p ack -e 40 -c 2 -a 0 -i 27 -k AGT
h -t 0.117557958 -s 0 -d -1 -p ack -e 40 -c 2 -a 0 -i 27 -k AGT
+ -t 0.117557958 -s 0 -d 1 -p ack -e 60 -c 2 -a 0 -i 27 -k RTR 
- -t 0.117557958 -s 0 -d 1 -p ack -e 60 -c 2 -a 0 -i 27 -k RTR
h -t 0.117557958 -s 0 -d 1 -p ack -e 60 -c 2 -a 0 -i 27 -k RTR
r -t 0.127664362 -s 0 -d 0 -p tcp -e 1040 -c 2 -a 0 -i 16 -k AGT
+ -t 0.127664362 -s 0 -d -1 -p ack -e 40 -c 2 -a 0 -i 28 -k AGT 
- -t 0.127664362 -s 0 -d -1 -p ack -e 40 -c 2 -a 0 -i 28 -k AGT
h -t 0.127664362 -s 0 -d -1 -p ack -e 40 -c 2 -a 0 -i 28 -k AGT
+ -t 0.127664362 -s 0 -d 1 -p ack -e 60 -c 2 -a 0 -i 28 -k RTR 
- -t 0.127664362 -s 0 -d 1 -p ack -e 60 -c 2 -a 0 -i 28 -k RTR
h -t 0.127664362 -s 0 -d 1 -p ack -e 60 -c 2 -a 0 -i 28 -k RTR
r -t 0.137950766 -s 0 -d 0 -p tcp -e 1040 -c 2 -a 0 -i 17 -k AGT
+ -t 0.137950766 -s 0 -d -1 -p ack -e 40 -c 2 -a 0 -i 29 -k AGT 
- -t 0.137950766 -s 0 -d -1 -p ack -e 40 -c 2 -a 0 -i 29 -k AGT
h -t 0.137950766 -s 0 -d -1 -p ack -e 40 -c 2 -a 0 -i 29 -k AGT
+ -t 0.137950766 -s 0 -d 1 -p ack -e 60 -c 2 -a 0 -i 29 -k RTR 
- -t 0.137950766 -s 0 -d 1 -p ack -e 60 -c 2 -a 0 -i 29 -k RTR
h -t 0.137950766 -s 0 -d 1 -p ack -e 60 -c 2 -a 0 -i 29 -k RTR
r -t 0.139976569 -s 1 -d 1 -p ack -e 40 -c 2 -a 0 -i 27 -k AGT
+ -t 0.139976569 -s 1 -d -1 -p tcp -e 1040 -c 2 -a 0 -i 30 -k AGT 
- -t 0.139976569 -s 1 -d -1 -p tcp -e 1040 -c 2 -a 0 -i 30 -k AGT
h -t 0.139976569 -s 1 -d -1 -p tcp -e 1040 -c 2 -a 0 -i 30 -k AGT
+ -t 0.139976569 -s 1 -d -1 -p tcp -e 1040 -c 2 -a 0 -i 31 -k AGT 
- -t 0.139976569 -s 1 -d -1 -p tcp -e 1040 -c 2 -a 0 -i 31 -k AGT
h -t 0.139976569 -s 1 -d -1 -p tcp -e 1040 -c 2 -a 0 -i 31 -k AGT
+ -t 0.139976569 -s 1 -d 0 -p tcp -e 1060 -c 2 -a 0 -i 30 -k RTR 
- -t 0.139976569 -s 1 -d 0 -p tcp -e 1060 -c 2 -a 0 -i 30 -k RTR
h -t 0.139976569 -s 1 -d 0 -p tcp -e 1060 -c 2 -a 0 -i 30 -k RTR
+ -t 0.139976569 -s 1 -d 0 -p tcp -e 1060 -c 2 -a 0 -i 31 -k RTR 
- -t 0.139976569 -s 1 -d 0 -p tcp -e 1060 -c 2 -a 0 -i 31 -k RTR
h -t 0.139976569 -s 1 -d 0 -p tcp -e 1060 -c 2 -a 0 -i 31 -k RTR
r -t 0.142182972 -s 1 -d 1 -p ack -e 40 -c 2 -a 0 -i 28 -k AGT
+ -t 0.142182972 -s 1 -d -1 -p tcp -e 1040 -c 2 -a 0 -i 32 -k AGT 
- -t 0.142182972 -s 1 -d -1 -p tcp -e 1040 -c 2 -a 0 -i 32 -k AGT
h -t 0.142182972 -s 1 -d -1 -p tcp -e 1040 -c 2 -a 0 -i 32 -k AGT
+ -t 0.142182972 -s 1 -d -1 -p tcp -e 1040 -c 2 -a 0 -i 33 -k AGT 
- -t 0.142182972 -s 1 -d -1 -p tcp -e 1040 -c 2 -a 0 -i 33 -k AGT
h -t 0.142182972 -s 1 -d -1 -p tcp -e 1040 -c 2 -a 0 -i 33 -k AGT
+ -t 0.142182972 -s 1 -d 0 -p tcp -e 1060 -c 2 -a 0 -i 32 -k RTR 
- -t 0.142182972 -s 1 -d 0 -p tcp -e 1060 -c 2 -a 0 -i 32 -k RTR
h -t 0.142182972 -s 1 -d 0 -p tcp -e 1060 -c 2 -a 0 -i 32 -k RTR
+ -t 0.142182972 -s 1 -d 0 -p tcp -e 1060 -c 2 -a 0 -i 33 -k RTR 
- -t 0.142182972 -s 1 -d 0 -p tcp -e 1060 -c 2 -a 0 -i 33 -k RTR
h -t 0.142182972 -s 1 -d 0 -p tcp -e 1060 -c 2 -a 0 -i 33 -k RTR
r -t 0.152248775 -s 0 -d 0 -p tcp -e 1040 -c 2 -a 0 -i 20 -k AGT
+ -t 0.152248775 -s 0 -d -1 -p ack -e 40 -c 2 -a 0 -i 34 -k AGT 
- -t 0.152248775 -s 0 -d -1 -p ack -e 40 -c 2 -a 0 -i 34 -k AGT
h -t 0.152248775 -s 0 -d -1 -p ack -e 40 -c 2 -a 0 -i 34 -k AGT
+ -t 0.152248775 -s 0 -d 1 -p ack -e 60 -c 2 -a 0 -i 34 -k RTR 
- -t 0.152248775 -s 0 -d 1 -p ack -e 60 -c 2 -a 0 -i 34 -k RTR
h -t 0.152248775 -s 0 -d 1 -p ack -e 60 -c 2 -a 0 -i 34 -k RTR
r -t 0.154354578 -s 1 -d 1 -p ack -e 40 -c 2 -a 0 -i 29 -k AGT
+ -t 0.154354578 -s 1 -d -1 -p tcp -e 1040 -c 2 -a 0 -i 35 -k AGT 
- -t 0.154354578 -s 1 -d -1 -p tcp -e 1040 -c 2 -a 0 -i 35 -k AGT
h -t 0.154354578 -s 1 -d -1 -p tcp -e 1040 -c 2 -a 0 -i 35 -k AGT
+ -t 0.154354578 -s 1 -d -1 -p tcp -e 1040 -c 2 -a 0 -i 36 -k AGT 
- -t 0.154354578 -s 1 -d -1 -p tcp -e 1040 -c 2 -a 0 -i 36 -k AGT
h -t 0.154354578 -s 1 -d -1 -p tcp -e 1040 -c 2 -a 0 -i 36 -k AGT
+ -t 0.154354578 -s 1 -d 0 -p tcp -e 1060 -c 2 -a 0 -i 35 -k RTR 
- -t 0.154354578 -s 1 -d 0 -p tcp -e 1060 -c 2 -a 0 -i 35 -k RTR
h -t 0.154354578 -s 1 -d 0 -p tcp -e 1060 -c 2 -a 0 -i 35 -k RTR
+ -t 0.154354578 -s 1 -d 0 -p tcp -e 1060 -c 2 -a 0 -i 36 -k RTR 
- -t 0.154354578 -s 1 -d 0 -p tcp -e 1060 -c 2 -a 0 -i 36 -k RTR
h -t 0.154354578 -s 1 -d 0 -p tcp -e 1060 -c 2 -a 0 -i 36 -k RTR
r -t 0.156460981 -s 1 -d 1 -p ack -e 40 -c 2 -a 0 -i 34 -k AGT
+ -t 0.156460981 -s 1 -d -1 -p tcp -e 1040 -c 2 -a 0 -i 37 -k AGT 
- -t 0.156460981 -s 1 -d -1 -p tcp -e 1040 -c 2 -a 0 -i 37 -k AGT
h -t 0.156460981 -s 1 -d -1 -p tcp -e 1040 -c 2 -a 0 -i 37 -k AGT
+ -t 0.156460981 -s 1 -d -1 -p tcp -e 1040 -c 2 -a 0 -i 38 -k AGT 
- -t 0.156460981 -s 1 -d -1 -p tcp -e 1040 -c 2 -a 0 -i 38 -k AGT
h -t 0.156460981 -s 1 -d -1 -p tcp -e 1040 -c 2 -a 0 -i 38 -k AGT
+ -t 0.156460981 -s 1 -d 0 -p tcp -e 1060 -c 2 -a 0 -i 37 -k RTR 
- -t 0.156460981 -s 1 -d 0 -p tcp -e 1060 -c 2 -a 0 -i 37 -k RTR
h -t 0.156460981 -s 1 -d 0 -p tcp -e 1060 -c 2 -a 0 -i 37 -k RTR
+ -t 0.156460981 -s 1 -d 0 -p tcp -e 1060 -c 2 -a 0 -i 38 -k RTR 
- -t 0.156460981 -s 1 -d 0 -p tcp -e 1060 -c 2 -a 0 -i 38 -k RTR
h -t 0.156460981 -s 1 -d 0 -p tcp -e 1060 -c 2 -a 0 -i 38 -k RTR
r -t 0.166606784 -s 0 -d 0 -p tcp -e 1040 -c 2 -a 0 -i 21 -k AGT
+ -t 0.166606784 -s 0 -d -1 -p ack -e 40 -c 2 -a 0 -i 39 -k AGT 
- -t 0.166606784 -s 0 -d -1 -p ack -e 40 -c 2 -a 0 -i 39 -k AGT
h -t 0.166606784 -s 0 -d -1 -p ack -e 40 -c 2 -a 0 -i 39 -k AGT
+ -t 0.166606784 -s 0 -d 1 -p ack -e 60 -c 2 -a 0 -i 39 -k RTR 
- -t 0.166606784 -s 0 -d 1 -p ack -e 60 -c 2 -a 0 -i 39 -k RTR
h -t 0.166606784 -s 0 -d 1 -p ack -e 60 -c 2 -a 0 -i 39 -k RTR
r -t 0.168672587 -s 1 -d 1 -p ack -e 40 -c 2 -a 0 -i 39 -k AGT
+ -t 0.168672587 -s 1 -d -1 -p tcp -e 1040 -c 2 -a 0 -i 40 -k AGT 
- -t 0.168672587 -s 1 -d -1 -p tcp -e 1040 -c 2 -a 0 -i 40 -k AGT
h -t 0.168672587 -s 1 -d -1 -p tcp -e 1040 -c 2 -a 0 -i 40 -k AGT
+ -t 0.168672587 -s 1 -d -1 -p tcp -e 1040 -c 2 -a 0 -i 41 -k AGT 
- -t 0.168672587 -s 1 -d -1 -p tcp -e 1040 -c 2 -a 0 -i 41 -k AGT
h -t 0.168672587 -s 1 -d -1 -p tcp -e 1040 -c 2 -a 0 -i 41 -k AGT
+ -t 0.168672587 -s 1 -d 0 -p tcp -e 1060 -c 2 -a 0 -i 40 -k RTR 
- -t 0.168672587 -s 1 -d 0 -p tcp -e 1060 -c 2 -a 0 -i 40 -k RTR
h -t 0.168672587 -s 1 -d 0 -p tcp -e 1060 -c 2 -a 0 -i 40 -k RTR
+ -t 0.168672587 -s 1 -d 0 -p tcp -e 1060 -c 2 -a 0 -i 41 -k RTR 
- -t 0.168672587 -s 1 -d 0 -p tcp -e 1060 -c 2 -a 0 -i 41 -k RTR
h -t 0.168672587 -s 1 -d 0 -p tcp -e 1060 -c 2 -a 0 -i 41 -k RTR
r -t 0.179098390 -s 0 -d 0 -p tcp -e 1040 -c 2 -a 0 -i 23 -k AGT
+ -t 0.179098390 -s 0 -d -1 -p ack -e 40 -c 2 -a 0 -i 42 -k AGT 
- -t 0.179098390 -s 0 -d -1 -p ack -e 40 -c 2 -a 0 -i 42 -k AGT
h -t 0.179098390 -s 0 -d -1 -p ack -e 40 -c 2 -a 0 -i 42 -k AGT
+ -t 0.179098390 -s 0 -d 1 -p ack -e 60 -c 2 -a 0 -i 42 -k RTR 
- -t 0.179098390 -s 0 -d 1 -p ack -e 60 -c 2 -a 0 -i 42 -k RTR
h -t 0.179098390 -s 0 -d 1 -p ack -e 60 -c 2 -a 0 -i 42 -k RTR
r -t 0.189084794 -s 0 -d 0 -p tcp -e 1040 -c 2 -a 0 -i 24 -k AGT
+ -t 0.189084794 -s 0 -d -1 -p ack -e 40 -c 2 -a 0 -i 43 -k AGT 
- -t 0.189084794 -s 0 -d -1 -p ack -e 40 -c 2 -a 0 -i 43 -k AGT
h -t 0.189084794 -s 0 -d -1 -p ack -e 40 -c 2 -a 0 -i 43 -k AGT
+ -t 0.189084794 -s 0 -d 1 -p ack -e 60 -c 2 -a 0 -i 43 -k RTR 
- -t 0.189084794 -s 0 -d 1 -p ack -e 60 -c 2 -a 0 -i 43 -k RTR
h -t 0.189084794 -s 0 -d 1 -p ack -e 60 -c 2 -a 0 -i 43 -k RTR
r -t 0.191170596 -s 1 -d 1 -p ack -e 40 -c 2 -a 0 -i 42 -k AGT
+ -t 0.191170596 -s 1 -d -1 -p tcp -e 1040 -c 2 -a 0 -i 44 -k AGT 
- -t 0.191170596 -s 1 -d -1 -p tcp -e 1040 -c 2 -a 0 -i 44 -k AGT
h -t 0.191170596 -s 1 -d -1 -p tcp -e 1040 -c 2 -a 0 -i 44 -k AGT
+ -t 0.191170596 -s 1 -d -1 -p tcp -e 1040 -c 2 -a 0 -i 45 -k AGT 
- -t 0.191170596 -s 1 -d -1 -p tcp -e 1040 -c 2 -a 0 -i 45 -k AGT
h -t 0.191170596 -s 1 -d -1 -p tcp -e 1040 -c 2 -a 0 -i 45 -k AGT
+ -t 0.191170596 -s 1 -d 0 -p tcp -e 1060 -c 2 -a 0 -i 44 -k RTR 
- -t 0.191170596 -s 1 -d 0 -p tcp -e 1060 -c 2 -a 0 -i 44 -k RTR
h -t 0.191170596 -s 1 -d 0 -p tcp -e 1060 -c 2 -a 0 -i 44 -k RTR
+ -t 0.191170596 -s 1 -d 0 -p tcp -e 1060 -c 2 -a 0 -i 45 -k RTR 
- -t 0.191170596 -s 1 -d 0 -p tcp -e 1060 -c 2 -a 0 -i 45 -k RTR
h -t 0.191170596 -s 1 -d 0 -p tcp -e 1060 -c 2 -a 0 -i 45 -k RTR
r -t 0.193177000 -s 1 -d 1 -p ack -e 40 -c 2 -a 0 -i 43 -k AGT
+ -t 0.193177000 -s 1 -d -1 -p tcp -e 1040 -c 2 -a 0 -i 46 -k AGT 
- -t 0.193177000 -s 1 -d -1 -p tcp -e 1040 -c 2 -a 0 -i 46 -k AGT
h -t 0.193177000 -s 1 -d -1 -p tcp -e 1040 -c 2 -a 0 -i 46 -k AGT
+ -t 0.193177000 -s 1 -d -1 -p tcp -e 1040 -c 2 -a 0 -i 47 -k AGT 
- -t 0.193177000 -s 1 -d -1 -p tcp -e 1040 -c 2 -a 0 -i 47 -k AGT
h -t 0.193177000 -s 1 -d -1 -p tcp -e 1040 -c 2 -a 0 -i 47 -k AGT
+ -t 0.193177000 -s 1 -d 0 -p tcp -e 1060 -c 2 -a 0 -i 46 -k RTR 
- -t 0.193177000 -s 1 -d 0 -p tcp -e 1060 -c 2 -a 0 -i 46 -k RTR
h -t 0.193177000 -s 1 -d 0 -p tcp -e 1060 -c 2 -a 0 -i 46 -k RTR
+ -t 0.193177000 -s 1 -d 0 -p tcp -e 1060 -c 2 -a 0 -i 47 -k RTR 
- -t 0.193177000 -s 1 -d 0 -p tcp -e 1060 -c 2 -a 0 -i 47 -k RTR
h -t 0.193177000 -s 1 -d 0 -p tcp -e 1060 -c 2 -a 0 -i 47 -k RTR
n -t 0.200000 -s 11 -x 0.000000 -y 100.000000 -U 218.539319 -V 393.370774 -T 0.228792
n -t 0.200000 -s 12 -x 100.000000 -y 100.000000 -U -57.223942 -V 446.346749 -T 0.873760
n -t 0.200000 -s 13 -x 200.000000 -y 100.000000 -U 161.540586 -V 420.005523 -T 0.928559
r -t 0.203462803 -s 0 -d 0 -p tcp -e 1040 -c 2 -a 0 -i 25 -k AGT
+ -t 0.203462803 -s 0 -d -1 -p ack -e 40 -c 2 -a 0 -i 48 -k AGT 
- -t 0.203462803 -s 0 -d -1 -p ack -e 40 -c 2 -a 0 -i 48 -k AGT
h -t 0.203462803 -s 0 -d -1 -p ack -e 40 -c 2 -a 0 -i 48 -k AGT
+ -t 0.203462803 -s 0 -d 1 -p ack -e 60 -c 2 -a 0 -i 48 -k RTR 
- -t 0.203462803 -s 0 -d 1 -p ack -e 60 -c 2 -a 0 -i 48 -k RTR
h -t 0.203462803 -s 0 -d 1 -p ack -e 60 -c 2 -a 0 -i 48 -k RTR
r -t 0.205828606 -s 1 -d 1 -p ack -e 40 -c 2 -a 0 -i 48 -k AGT
+ -t 0.205828606 -s 1 -d -1 -p tcp -e 1040 -c 2 -a 0 -i 49 -k AGT 
- -t 0.205828606 -s 1 -d -1 -p tcp -e 1040 -c 2 -a 0 -i 49 -k AGT
h -t 0.205828606 -s 1 -d -1 -p tcp -e 1040 -c 2 -a 0 -i 49 -k AGT
+ -t 0.205828606 -s 1 -d -1 -p tcp -e 1040 -c 2 -a 0 -i 50 -k AGT 
- -t 0.205828606 -s 1 -d -1 -p tcp -e 1040 -c 2 -a 0 -i 50 -k AGT
h -t 0.205828606 -s 1 -d -1 -p tcp -e 1040 -c 2 -a 0 -i 50 -k AGT
+ -t 0.205828606 -s 1 -d 0 -p tcp -e 1060 -c 2 -a 0 -i 49 -k RTR 
- -t 0.205828606 -s 1 -d 0 -p tcp -e 1060 -c 2 -a 0 -i 49 -k RTR
h -t 0.205828606 -s 1 -d 0 -p tcp -e 1060 -c 2 -a 0 -i 49 -k RTR
+ -t 0.205828606 -s 1 -d 0 -p tcp -e 1060 -c 2 -a 0 -i 50 -k RTR 
- -t 0.205828606 -s 1 -d 0 -p tcp -e 1060 -c 2 -a 0 -i 50 -k RTR
h -t 0.205828606 -s 1 -d 0 -p tcp -e 1060 -c 2 -a 0 -i 50 -k RTR
r -t 0.215874408 -s 0 -d 0 -p tcp -e 1040 -c 2 -a 0 -i 26 -k AGT
+ -t 0.215874408 -s 0 -d -1 -p ack -e 40 -c 2 -a 0 -i 51 -k AGT 
- -t 0.215874408 -s 0 -d -1 -p ack -e 40 -c 2 -a 0 -i 51 -k AGT
h -t 0.215874408 -s 0 -d -1 -p ack -e 40 -c 2 -a 0 -i 51 -k AGT
+ -t 0.215874408 -s 0 -d 1 -p ack -e 60 -c 2 -a 0 -i 51 -k RTR 
- -t 0.215874408 -s 0 -d 1 -p ack -e 60 -c 2 -a 0 -i 51 -k RTR
h -t 0.215874408 -s 0 -d 1 -p ack -e 60 -c 2 -a 0 -i 51 -k RTR
r -t 0.218280211 -s 1 -d 1 -p ack -e 40 -c 2 -a 0 -i 51 -k AGT
+ -t 0.218280211 -s 1 -d -1 -p tcp -e 1040 -c 2 -a 0 -i 52 -k AGT 
- -t 0.218280211 -s 1 -d -1 -p tcp -e 1040 -c 2 -a 0 -i 52 -k AGT
h -t 0.218280211 -s 1 -d -1 -p tcp -e 1040 -c 2 -a 0 -i 52 -k AGT
+ -t 0.218280211 -s 1 -d -1 -p tcp -e 1040 -c 2 -a 0 -i 53 -k AGT 
- -t 0.218280211 -s 1 -d -1 -p tcp -e 1040 -c 2 -a 0 -i 53 -k AGT
h -t 0.218280211 -s 1 -d -1 -p tcp -e 1040 -c 2 -a 0 -i 53 -k AGT
+ -t 0.218280211 -s 1 -d 0 -p tcp -e 1060 -c 2 -a 0 -i 52 -k RTR 
- -t 0.218280211 -s 1 -d 0 -p tcp -e 1060 -c 2 -a 0 -i 52 -k RTR
h -t 0.218280211 -s 1 -d 0 -p tcp -e 1060 -c 2 -a 0 -i 52 -k RTR
+ -t 0.218280211 -s 1 -d 0 -p tcp -e 1060 -c 2 -a 0 -i 53 -k RTR 
- -t 0.218280211 -s 1 -d 0 -p tcp -e 1060 -c 2 -a 0 -i 53 -k RTR
h -t 0.218280211 -s 1 -d 0 -p tcp -e 1060 -c 2 -a 0 -i 53 -k RTR
r -t 0.228386014 -s 0 -d 0 -p tcp -e 1040 -c 2 -a 0 -i 30 -k AGT
+ -t 0.228386014 -s 0 -d -1 -p ack -e 40 -c 2 -a 0 -i 54 -k AGT 
- -t 0.228386014 -s 0 -d -1 -p ack -e 40 -c 2 -a 0 -i 54 -k AGT
h -t 0.228386014 -s 0 -d -1 -p ack -e 40 -c 2 -a 0 -i 54 -k AGT
+ -t 0.228386014 -s 0 -d 1 -p ack -e 60 -c 2 -a 0 -i 54 -k RTR 
- -t 0.228386014 -s 0 -d 1 -p ack -e 60 -c 2 -a 0 -i 54 -k RTR
h -t 0.228386014 -s 0 -d 1 -p ack -e 60 -c 2 -a 0 -i 54 -k RTR
r -t 0.230391817 -s 1 -d 1 -p ack -e 40 -c 2 -a 0 -i 54 -k AGT
+ -t 0.230391817 -s 1 -d -1 -p tcp -e 1040 -c 2 -a 0 -i 55 -k AGT 
- -t 0.230391817 -s 1 -d -1 -p tcp -e 1040 -c 2 -a 0 -i 55 -k AGT
h -t 0.230391817 -s 1 -d -1 -p tcp -e 1040 -c 2 -a 0 -i 55 -k AGT
+ -t 0.230391817 -s 1 -d -1 -p tcp -e 1040 -c 2 -a 0 -i 56 -k AGT 
- -t 0.230391817 -s 1 -d -1 -p tcp -e 1040 -c 2 -a 0 -i 56 -k AGT
h -t 0.230391817 -s 1 -d -1 -p tcp -e 1040 -c 2 -a 0 -i 56 -k AGT
+ -t 0.230391817 -s 1 -d 0 -p tcp -e 1060 -c 2 -a 0 -i 55 -k RTR 
- -t 0.230391817 -s 1 -d 0 -p tcp -e 1060 -c 2 -a 0 -i 55 -k RTR
h -t 0.230391817 -s 1 -d 0 -p tcp -e 1060 -c 2 -a 0 -i 55 -k RTR
+ -t 0.230391817 -s 1 -d 0 -p tcp -e 1060 -c 2 -a 0 -i 56 -k RTR 
- -t 0.230391817 -s 1 -d 0 -p tcp -e 1060 -c 2 -a 0 -i 56 -k RTR
h -t 0.230391817 -s 1 -d 0 -p tcp -e 1060 -c 2 -a 0 -i 56 -k RTR
r -t 0.240957619 -s 0 -d 0 -p tcp -e 1040 -c 2 -a 0 -i 31 -k AGT
+ -t 0.240957619 -s 0 -d -1 -p ack -e 40 -c 2 -a 0 -i 57 -k AGT 
- -t 0.240957619 -s 0 -d -1 -p ack -e 40 -c 2 -a 0 -i 57 -k AGT
h -t 0.240957619 -s 0 -d -1 -p ack -e 40 -c 2 -a 0 -i 57 -k AGT
+ -t 0.240957619 -s 0 -d 1 -p ack -e 60 -c 2 -a 0 -i 57 -k RTR 
- -t 0.240957619 -s 0 -d 1 -p ack -e 60 -c 2 -a 0 -i 57 -k RTR
h -t 0.240957619 -s 0 -d 1 -p ack -e 60 -c 2 -a 0 -i 57 -k RTR
r -t 0.243183422 -s 1 -d 1 -p ack -e 40 -c 2 -a 0 -i 57 -k AGT
+ -t 0.243183422 -s 1 -d -1 -p tcp -e 1040 -c 2 -a 0 -i 58 -k AGT 
- -t 0.243183422 -s 1 -d -1 -p tcp -e 1040 -c 2 -a 0 -i 58 -k AGT
h -t 0.243183422 -s 1 -d -1 -p tcp -e 1040 -c 2 -a 0 -i 58 -k AGT
+ -t 0.243183422 -s 1 -d -1 -p tcp -e 1040 -c 2 -a 0 -i 59 -k AGT 
- -t 0.243183422 -s 1 -d -1 -p tcp -e 1040 -c 2 -a 0 -i 59 -k AGT
h -t 0.243183422 -s 1 -d -1 -p tcp -e 1040 -c 2 -a 0 -i 59 -k AGT
+ -t 0.243183422 -s 1 -d 0 -p tcp -e 1060 -c 2 -a 0 -i 58 -k RTR 
- -t 0.243183422 -s 1 -d 0 -p tcp -e 1060 -c 2 -a 0 -i 58 -k RTR
h -t 0.243183422 -s 1 -d 0 -p tcp -e 1060 -c 2 -a 0 -i 58 -k RTR
+ -t 0.243183422 -s 1 -d 0 -p tcp -e 1060 -c 2 -a 0 -i 59 -k RTR 
- -t 0.243183422 -s 1 -d 0 -p tcp -e 1060 -c 2 -a 0 -i 59 -k RTR
h -t 0.243183422 -s 1 -d 0 -p tcp -e 1060 -c 2 -a 0 -i 59 -k RTR
r -t 0.253449225 -s 0 -d 0 -p tcp -e 1040 -c 2 -a 0 -i 32 -k AGT
+ -t 0.253449225 -s 0 -d -1 -p ack -e 40 -c 2 -a 0 -i 60 -k AGT 
- -t 0.253449225 -s 0 -d -1 -p ack -e 40 -c 2 -a 0 -i 60 -k AGT
h -t 0.253449225 -s 0 -d -1 -p ack -e 40 -c 2 -a 0 -i 60 -k AGT
+ -t 0.253449225 -s 0 -d 1 -p ack -e 60 -c 2 -a 0 -i 60 -k RTR 
- -t 0.253449225 -s 0 -d 1 -p ack -e 60 -c 2 -a 0 -i 60 -k RTR
h -t 0.253449225 -s 0 -d 1 -p ack -e 60 -c 2 -a 0 -i 60 -k RTR
r -t 0.263435629 -s 0 -d 0 -p tcp -e 1040 -c 2 -a 0 -i 33 -k AGT
+ -t 0.263435629 -s 0 -d -1 -p ack -e 40 -c 2 -a 0 -i 61 -k AGT 
- -t 0.263435629 -s 0 -d -1 -p ack -e 40 -c 2 -a 0 -i 61 -k AGT
h -t 0.263435629 -s 0 -d -1 -p ack -e 40 -c 2 -a 0 -i 61 -k AGT
+ -t 0.263435629 -s 0 -d 1 -p ack -e 60 -c 2 -a 0 -i 61 -k RTR 
- -t 0.263435629 -s 0 -d 1 -p ack -e 60 -c 2 -a 0 -i 61 -k RTR
h -t 0.263435629 -s 0 -d 1 -p ack -e 60 -c 2 -a 0 -i 61 -k RTR
r -t 0.273582032 -s 0 -d 0 -p tcp -e 1040 -c 2 -a 0 -i 35 -k AGT
+ -t 0.273582032 -s 0 -d -1 -p ack -e 40 -c 2 -a 0 -i 62 -k AGT 
- -t 0.273582032 -s 0 -d -1 -p ack -e 40 -c 2 -a 0 -i 62 -k AGT
h -t 0.273582032 -s 0 -d -1 -p ack -e 40 -c 2 -a 0 -i 62 -k AGT
+ -t 0.273582032 -s 0 -d 1 -p ack -e 60 -c 2 -a 0 -i 62 -k RTR 
- -t 0.273582032 -s 0 -d 1 -p ack -e 60 -c 2 -a 0 -i 62 -k RTR
h -t 0.273582032 -s 0 -d 1 -p ack -e 60 -c 2 -a 0 -i 62 -k RTR
r -t 0.275647835 -s 1 -d 1 -p ack -e 40 -c 2 -a 0 -i 60 -k AGT
+ -t 0.275647835 -s 1 -d -1 -p tcp -e 1040 -c 2 -a 0 -i 63 -k AGT 
- -t 0.275647835 -s 1 -d -1 -p tcp -e 1040 -c 2 -a 0 -i 63 -k AGT
h -t 0.275647835 -s 1 -d -1 -p tcp -e 1040 -c 2 -a 0 -i 63 -k AGT
+ -t 0.275647835 -s 1 -d 0 -p tcp -e 1060 -c 2 -a 0 -i 63 -k RTR 
- -t 0.275647835 -s 1 -d 0 -p tcp -e 1060 -c 2 -a 0 -i 63 -k RTR
h -t 0.275647835 -s 1 -d 0 -p tcp -e 1060 -c 2 -a 0 -i 63 -k RTR
r -t 0.277674239 -s 1 -d 1 -p ack -e 40 -c 2 -a 0 -i 61 -k AGT
+ -t 0.277674239 -s 1 -d -1 -p tcp -e 1040 -c 2 -a 0 -i 64 -k AGT 
- -t 0.277674239 -s 1 -d -1 -p tcp -e 1040 -c 2 -a 0 -i 64 -k AGT
h -t 0.277674239 -s 1 -d -1 -p tcp -e 1040 -c 2 -a 0 -i 64 -k AGT
+ -t 0.277674239 -s 1 -d 0 -p tcp -e 1060 -c 2 -a 0 -i 64 -k RTR 
- -t 0.277674239 -s 1 -d 0 -p tcp -e 1060 -c 2 -a 0 -i 64 -k RTR
h -t 0.277674239 -s 1 -d 0 -p tcp -e 1060 -c 2 -a 0 -i 64 -k RTR
r -t 0.287680042 -s 0 -d 0 -p tcp -e 1040 -c 2 -a 0 -i 36 -k AGT
+ -t 0.287680042 -s 0 -d -1 -p ack -e 40 -c 2 -a 0 -i 65 -k AGT 
- -t 0.287680042 -s 0 -d -1 -p ack -e 40 -c 2 -a 0 -i 65 -k AGT
h -t 0.287680042 -s 0 -d -1 -p ack -e 40 -c 2 -a 0 -i 65 -k AGT
+ -t 0.287680042 -s 0 -d 1 -p ack -e 60 -c 2 -a 0 -i 65 -k RTR 
- -t 0.287680042 -s 0 -d 1 -p ack -e 60 -c 2 -a 0 -i 65 -k RTR
h -t 0.287680042 -s 0 -d 1 -p ack -e 60 -c 2 -a 0 -i 65 -k RTR
r -t 0.297966445 -s 0 -d 0 -p tcp -e 1040 -c 2 -a 0 -i 37 -k AGT